thermo 1000
thermo_style custom step temp press pe etotal enthalpy pxx pyy pzz
dump 		trj all atom 500 out.sys_nvt.${temp}.lammpstrj
dump 		trj all atom 500 out.sys_nvt.0.5.lammpstrj
restart 100000 out.restart1.${temp} out.restart2.${temp}
restart 100000 out.restart1.0.5 out.restart2.${temp}
restart 100000 out.restart1.0.5 out.restart2.0.5

fix ploadx all balance 10000 1.05 shift x 20 1.05
fix intg all nvt temp ${temp} ${temp} ${tdump}
fix intg all nvt temp 0.5 ${temp} ${tdump}
fix intg all nvt temp 0.5 0.5 ${tdump}
fix intg all nvt temp 0.5 0.5 1
run ${Nrun}
run 1000000
Per MPI rank memory allocation (min/avg/max) = 12.56 | 12.56 | 12.56 Mbytes
Step Temp Press PotEng TotEng Enthalpy Pxx Pyy Pzz 
 4000000    0.4019035  0.049191246  -0.38345341    0.2193717   0.48605114  0.050044167   0.04867552   0.04885405 
 4001000   0.51049577  0.077420934  -0.35599708   0.40970829   0.82942874  0.078777128  0.078508671  0.074977004 
 4002000    0.5045317   0.07787136  -0.35149826   0.40526145   0.82742378  0.079281951  0.080185135  0.074146993 
 4003000   0.50499918  0.077405044  -0.34960926   0.40785163   0.82748594  0.078216525    0.0781276  0.075871009 
 4004000   0.50324351   0.07643636  -0.34936892   0.40545859   0.81984139   0.07656829  0.076547279  0.076193512 
 4005000   0.50394335  0.078603568  -0.34798985   0.40788738   0.83401921   0.07873702  0.078891173  0.078182509 
 4006000   0.50115105  0.078421361  -0.34809031   0.40359868   0.82874272  0.079270222  0.076504145  0.079489717 
 4007000   0.50137791  0.077204234  -0.35065018   0.40137908   0.81992474  0.077278102  0.078594987  0.075739614 
 4008000   0.49957903  0.075338561  -0.34988075   0.39945032   0.80788165  0.076037015  0.074046945  0.075931724 
 4009000   0.49849482  0.076023257  -0.34973506   0.39796979   0.81011304  0.077452309  0.075952517  0.074664946 
 4010000   0.50019902  0.076849539  -0.35147103   0.39878998   0.81541274  0.076098258  0.076982391  0.077467969 
 4011000   0.49767978   0.07466817  -0.35006337   0.39641898   0.80121593  0.074920585  0.075378926  0.073704999 
 4012000   0.49689495  0.072867142  -0.35191844   0.39338672   0.78841979  0.073928309   0.07234308  0.072330038 
 4013000   0.50135375  0.076495138  -0.35078636   0.40120667   0.81590812  0.075981534  0.076359554  0.077144327 
 4014000   0.50078957  0.075381909  -0.35020257   0.40094422   0.80961055  0.075402461  0.077024394  0.073718873 
 4015000   0.50028897  0.075088384  -0.34898228   0.40141366    0.8084887  0.074239351  0.078372392  0.072653409 
 4016000   0.50405556  0.078238604  -0.35160707   0.40443847   0.82859174  0.079188567  0.077629537  0.077897708 
 4017000   0.50558189  0.079023886  -0.34995997   0.40837494   0.83678544  0.076318277  0.080210317  0.080543064 
 4018000   0.49663304  0.077948552  -0.35045207   0.39446024   0.81704105   0.07754533  0.075310293  0.080990033 
 4019000   0.49958002   0.07606818  -0.34811078   0.40122178   0.81360857  0.075750906  0.074786752  0.077666883 
 4020000   0.49789925  0.078083097  -0.34784133    0.3989702   0.82228042  0.077956784  0.077947353  0.078345155 
 4021000   0.50068919   0.07697952  -0.34947438   0.40152185   0.81884927  0.074543496  0.074407102  0.081987961 
 4022000   0.50305198  0.076316452  -0.35236089   0.40217935   0.81591209  0.075156584  0.075143191   0.07864958 
 4023000   0.49991657  0.075876081  -0.34788603   0.40195133    0.8132967  0.077917405  0.075985097  0.073725741 
 4024000    0.5025284  0.078339734  -0.35007706   0.40367784   0.82837936  0.077426234  0.076570768  0.081022199 
 4025000   0.50116494  0.076599342  -0.34764342   0.40406641   0.81933278  0.077697018  0.076999927  0.075101082 
 4026000   0.49750444  0.074305717  -0.35301353   0.39320581    0.7960378  0.075725491  0.074396302  0.072795356 
 4027000   0.50320876  0.075794718   -0.3488392    0.4059362   0.81684047  0.074831437  0.074749985  0.077802733 
 4028000   0.50059359  0.075501825  -0.35280138   0.39805146   0.80736788  0.075786153  0.076693459  0.074025862 
 4029000   0.50182787  0.076620855  -0.35317531   0.39952886   0.81491185  0.077371292  0.075160251  0.077331022 
 4030000   0.50124946  0.075776746   -0.3491313    0.4027053   0.81351214  0.075221284  0.077062392  0.075046562 
 4031000   0.50407978  0.076351657  -0.35048754   0.40559433   0.81951792  0.077006126  0.077420489  0.074628354 
 4032000   0.50100765  0.075912418  -0.34895716   0.40251674    0.8140591   0.07818709  0.074247604  0.075302561 
 4033000   0.50476435  0.076125921   -0.3480735   0.40903516   0.82173498  0.075856384  0.074780121  0.077741258 
 4034000   0.50193602  0.076017107  -0.35101135   0.40185503   0.81396494  0.076588728   0.07573409  0.075728502 
 4035000   0.49886677  0.074137138  -0.34939155   0.39887118   0.80078926  0.075198483  0.073175548  0.074037383 
 4036000   0.49545656  0.076000094  -0.35083462   0.39231305   0.80433073  0.076967019  0.076208297  0.074824966 
 4037000   0.49863744   0.07616886  -0.35119337   0.39672539     0.809658   0.07530056  0.075121952  0.078084067 
 4038000   0.49857021  0.078678051  -0.35117591   0.39664201   0.82317764  0.080870082  0.079431714  0.075732357 
 4039000   0.50007182  0.078710492  -0.34921964   0.40085059   0.82756208  0.078742763  0.077968881  0.079419832 
 4040000   0.50139181  0.076285406  -0.34878143   0.40326869   0.81683312  0.074680338  0.075390191  0.078785689 
 4041000   0.50485063  0.079387269  -0.34474995   0.41248814   0.84286863  0.079879333  0.081106479  0.077175995 
 4042000   0.50031697  0.076088548  -0.34808463    0.4023533   0.81485051   0.07635229  0.075788512  0.076124844 
 4043000   0.50169479  0.077387406  -0.34911318   0.40339138   0.82293006  0.075379117  0.081396222   0.07538688 
 4044000   0.49855446  0.074611572  -0.35209573   0.39569856   0.80018867   0.07190821  0.074429603  0.077496903 
 4045000   0.49372242  0.077186917  -0.34830311   0.39224349   0.81069526  0.079451443  0.076714894  0.075394414 
 4046000   0.50143465  0.074954305  -0.34995056   0.40216381   0.80851197  0.074188541  0.075577062  0.075097312 
 4047000   0.50040181   0.07817615  -0.34877463   0.40179056   0.82560524  0.079949405  0.077809901  0.076769144 
 4048000    0.5002146  0.078748236   -0.3467092   0.40357518    0.8304913  0.082144806  0.075417403    0.0786825 
 4049000   0.50521347  0.076435118  -0.35037817   0.40740414    0.8217802  0.078003402  0.075716959  0.075584992 
 4050000   0.50090565  0.077335448  -0.34812659   0.40319431   0.82245132  0.074825146  0.080294975  0.076886223 
 4051000   0.49588273  0.074610378  -0.34947325   0.39431365   0.79879729   0.07214087  0.075585732  0.076104533 
 4052000   0.49300551  0.075470827  -0.35164907   0.38782221   0.79697059  0.077507697  0.075366806  0.073537977 
 4053000   0.49623817  0.077481252  -0.34812146   0.39619857   0.81624602  0.075818237  0.078789993  0.077835526 
 4054000    0.5003288  0.076572498  -0.34872066   0.40173502   0.81685586  0.075936626   0.07818173  0.075599138 
 4055000   0.50305281  0.077765811  -0.34971077   0.40483072   0.82642084  0.079505412  0.077177782  0.076614239 
 4056000   0.50460971  0.074658983  -0.35073365   0.40614306   0.81089021  0.074615288  0.073612417  0.075749244 
 4057000   0.50284375  0.077535285  -0.34839133   0.40583658   0.82617695  0.076661118  0.078883353  0.077061382 
 4058000   0.50638799  0.078717858  -0.34754313   0.41200088   0.83875231  0.077469099  0.077068966  0.081615508 
 4059000   0.50528101   0.07819586  -0.35233879   0.40554483   0.82946636   0.07881293  0.079908692  0.075865958 
 4060000   0.50327382   0.07486378  -0.35166149   0.40321149   0.80906889  0.072900708  0.075735795  0.075954836 
 4061000   0.49966334   0.07543542  -0.35083483    0.3986227   0.80757912  0.074860816  0.076323082  0.075122362 
 4062000   0.49988621   0.07627121  -0.35040101   0.39939081   0.81287828  0.073744582   0.07808426  0.076984788 
 4063000    0.5022092  0.076711393  -0.35020752   0.40306861   0.81894244  0.077718932  0.075643166   0.07677208 
 4064000   0.49812954  0.077191918  -0.34730679   0.39985017   0.81832906  0.076976718   0.07724243  0.077356607 
 4065000   0.49808091  0.077179695  -0.35006145   0.39702257   0.81543519  0.077077949  0.077582148  0.076878988 
 4066000    0.4967064  0.075185936  -0.34898345    0.3960389    0.8036428  0.071971945  0.077245396  0.076340467 
 4067000   0.49857622  0.077647624  -0.35279447   0.39503246   0.81598186  0.076167214   0.07966881  0.077106849 
 4068000   0.49963382  0.076103482  -0.34990311   0.39951014   0.81208832  0.077344077  0.075423408  0.075542963 
 4069000    0.5012392  0.075672546  -0.35201013   0.39981107   0.81005302  0.076391791  0.075933798  0.074692048 
 4070000   0.50372918  0.078769403  -0.34924085   0.40631514   0.83334601  0.081572948  0.079105446  0.075629815 
 4071000   0.50125355  0.075087335  -0.34978321   0.40205953   0.80912889  0.072680459  0.075217911  0.077363636 
 4072000   0.50324457  0.078812745  -0.34950642   0.40532269   0.83258854  0.076948159  0.077958678  0.081531399 
 4073000   0.50286664  0.076532905  -0.35147549   0.40278676   0.81769295  0.078628661  0.074943229  0.076026824 
 4074000   0.50675445   0.07832634  -0.35217571   0.40791795   0.83254686  0.078862153  0.076779327   0.07933754 
 4075000    0.4998457  0.075995205  -0.34921963   0.40051143    0.8125026   0.07467303  0.077401001  0.075911583 
 4076000   0.50019095  0.076080127   -0.3495359     0.400713   0.81316456   0.07603682  0.075743827  0.076459734 
 4077000     0.497874  0.075296752  -0.35139639   0.39537727   0.80358193  0.076160193  0.078060296  0.071669767 
 4078000   0.49586177  0.075451062  -0.35081022   0.39294524   0.80198646  0.074041985  0.076429935  0.075881267 
 4079000   0.50163023  0.077337763  -0.34898467   0.40342305   0.82269261  0.075730917  0.079122691   0.07715968 
 4080000   0.50132829  0.075223516  -0.35009853    0.4018563   0.80966393  0.075653344  0.075517428  0.074499776 
 4081000    0.5018994  0.078246153  -0.34933468   0.40347678   0.82767096  0.078300733  0.078806461  0.077631264 
 4082000   0.50142923  0.075918873  -0.34674579   0.40536045    0.8169378  0.075741028  0.077511756  0.074503837 
 4083000   0.50425638   0.07800856  -0.35019479   0.40615196   0.82905809  0.077878249  0.080014789  0.076132641 
 4084000   0.50046326  0.078830386  -0.34975559   0.40090176   0.82826324  0.079809283  0.080979423  0.075702451 
 4085000   0.50126426  0.078002664  -0.35115993   0.40069887   0.82357304  0.076719236  0.078131615  0.079157143 
 4086000    0.5003181  0.076047484  -0.34982903   0.40061059   0.81288517   0.07492505  0.075874034  0.077343366 
 4087000   0.49868065  0.077014593   -0.3502248   0.39775877   0.81527633  0.075350326  0.076396676  0.079296777 
 4088000    0.4966791  0.074404757  -0.35001483   0.39496658   0.79833548  0.071324227  0.076702753  0.075187289 
 4089000   0.49387554  0.074462408  -0.35130238   0.38947388   0.79315533   0.07445649  0.074388928  0.074541805 
 4090000   0.50321266  0.075509798  -0.35261265    0.4021686   0.81152825  0.074164581  0.079300745   0.07306407 
 4091000   0.50266888   0.07738752  -0.34963637   0.40432924   0.82386854  0.076763277   0.07912855  0.076270733 
 4092000   0.50229593  0.076210254  -0.35214068   0.40126555   0.81442256  0.076456623  0.076859469   0.07531467 
 4093000   0.49901269  0.076976848  -0.35001301   0.39846859   0.81578153  0.078504038  0.076972597  0.075453909 
 4094000   0.49578244  0.076019339  -0.35115539   0.39248109    0.8046031  0.074965472  0.073684211  0.079408334 
 4095000   0.49853339  0.075659404  -0.35060322   0.39715948   0.80733018   0.07529147  0.074280917  0.077405825 
 4096000   0.49823487  0.075149632  -0.34980742   0.39750752   0.80491461  0.073288753  0.078201109  0.073959035 
 4097000   0.49833077  0.076536319  -0.34776582   0.39969297   0.81461767  0.078017696  0.077462387  0.074128873 
 4098000   0.49987139  0.076363528  -0.35068109   0.39908851   0.81307646  0.077913982  0.075626476  0.075550125 
 4099000   0.50559894  0.076629718  -0.35220659   0.40615389   0.82158493  0.076065354  0.076111443  0.077712356 
 4100000   0.50185494   0.07804584   -0.3495556   0.40318917   0.82629741  0.078824492  0.077739473  0.077573555 
 4101000   0.49749643  0.075960921  -0.35033314   0.39587419    0.8076795  0.077949251  0.075156414  0.074777097 
 4102000   0.49958695  0.076351731   -0.3507706   0.39857237   0.81249636  0.077823811  0.075738861  0.075492521 
 4103000   0.49917587  0.075640316  -0.35079404   0.39793232   0.80799954  0.074130732  0.073137562  0.079652654 
 4104000   0.50180222  0.077224914  -0.35069454   0.40197115   0.82062892   0.07954158  0.077159697  0.074973464 
 4105000   0.50512197   0.07648869  -0.34772745   0.40991762   0.82458411  0.079139191  0.075067474  0.075259406 
 4106000   0.50200619  0.077185439  -0.34704551   0.40592612   0.82436989   0.07555317  0.077250783  0.078752366 
 4107000   0.50190167  0.076275422  -0.34949149   0.40332337   0.81683368  0.075784173  0.078714856  0.074327238 
 4108000   0.50250135  0.077772466  -0.34979888   0.40391546   0.82554166  0.079215781  0.076465143  0.077636473 
 4109000   0.50373004  0.077446338   -0.3492788   0.40627849   0.82613665  0.077286866  0.074742296  0.080309852 
 4110000      0.49987  0.075517528  -0.34898429   0.40078322   0.81018478  0.076961143  0.076033246  0.073558196 
 4111000   0.49934192  0.076426649  -0.34754602   0.40142942   0.81575957  0.076502989  0.075324997  0.077451962 
 4112000   0.49903665  0.078797118  -0.34855896   0.39995858    0.8271397  0.075693062  0.080528798  0.080169494 
 4113000   0.50302093  0.078437224  -0.35027892   0.40421475   0.82944479   0.08169709   0.07995017  0.073664412 
 4114000   0.49934947  0.076966814   -0.3475877   0.40139904   0.81865758  0.078045082  0.078230344  0.074625015 
 4115000   0.50140726  0.076927936  -0.34901481   0.40305848   0.82010625  0.078570151  0.076239326   0.07597433 
 4116000    0.5030839  0.076924381  -0.35192241   0.40266571    0.8196942  0.074305498   0.07835932  0.078108325 
 4117000   0.50067861  0.074105049   -0.3519029   0.39907747   0.80082158  0.074180465  0.073060383    0.0750743 
 4118000   0.49652063  0.075634467  -0.35283985   0.39190386   0.80193937  0.074410188  0.074668929  0.077824283 
 4119000   0.49990085  0.076675499  -0.35300398    0.3968098   0.81248903  0.076290107  0.075713072  0.078023318 
 4120000   0.49891063  0.074866039  -0.35037031   0.39795821   0.80382786   0.07379434  0.074239353  0.076564423 
 4121000   0.49584523  0.074451041  -0.35051525    0.3932154   0.79683523  0.075651619  0.074362031  0.073339474 
 4122000   0.50046681  0.076046662  -0.35001142   0.40065126    0.8129214    0.0770362  0.076546647   0.07455714 
 4123000   0.50195451  0.076109418  -0.35084031   0.40205381   0.81466417  0.073171724  0.076249853  0.078906677 
 4124000    0.5002083  0.076339443  -0.34957947   0.40069547   0.81455286   0.07550139  0.076820225  0.076696714 
 4125000   0.50414324  0.076710347  -0.35213697   0.40404007   0.81990823  0.076226707  0.077355339  0.076548996 
 4126000   0.49896179  0.080820933  -0.35104598   0.39735927   0.83551206  0.079031441  0.081738726  0.081692631 
 4127000   0.50019323    0.0760117  -0.34846007   0.40179226   0.81387286  0.076227203  0.074898484  0.076909412 
 4128000   0.50217114  0.078198676  -0.35071039   0.40250865   0.82644546  0.078667626  0.079291203    0.0766372 
 4129000   0.49934359   0.07833294  -0.34789871   0.40107922   0.82574391  0.077000373   0.07844629  0.079552157 
 4130000   0.50400751  0.077981322  -0.34922679   0.40674668   0.82950514  0.077092689  0.079908002  0.076943275 
 4131000    0.4948034  0.076168848  -0.34792029    0.3942477   0.80718024   0.07778166  0.075529126  0.075195758 
 4132000   0.49679229  0.074622831  -0.34998508   0.39516609   0.79971724  0.075457194   0.07244661  0.075964688 
 4133000   0.49956943  0.074556038  -0.35272888    0.3965878   0.80077685  0.075816141  0.072930077  0.074921896 
 4134000   0.49552551  0.076808295  -0.34907216   0.39417893    0.8105781  0.075804461  0.078038458  0.076581966 
 4135000   0.49633502  0.076269498  -0.34964001   0.39482529   0.80830348  0.076397285  0.073662967  0.078748243 
 4136000   0.50129723  0.075695322  -0.35004811   0.40186014   0.81222557  0.075890489  0.075999622  0.075195855 
 4137000   0.49819355  0.076206131  -0.34902284   0.39823012   0.81136478  0.075244042  0.077413213  0.075961138 
 4138000    0.4998477  0.074180357  -0.35027596    0.3994581   0.80161048  0.074258557   0.07165933  0.076623184 
 4139000   0.49849571  0.077204482  -0.34837744   0.39932874   0.81787574  0.075209741  0.079820709  0.076582994 
 4140000   0.50003456  0.076780686  -0.35197577   0.39803857   0.81428805  0.076327546  0.076342483   0.07767203 
 4141000   0.49468735  0.074017966  -0.35229908   0.38969484   0.79096685  0.074290353  0.072039254  0.075724289 
 4142000   0.50137775  0.075581995  -0.35052878   0.40150024   0.81125129  0.075296985  0.074543144  0.076905856 
 4143000   0.49895627  0.077490183   -0.3461297   0.40226728   0.82236314  0.077680967  0.077548177  0.077241405 
 4144000   0.50036613  0.076079489   -0.3488123   0.40169936   0.81414746  0.076069836  0.075922961  0.076245669 
 4145000   0.50164731  0.077391607  -0.34989067   0.40254267   0.82210413  0.078271919  0.076686352  0.077216551 
 4146000   0.49876999  0.075925806  -0.35349688    0.3946207   0.80623564   0.07428963  0.077673395  0.075814394 
 4147000   0.49833629    0.0767613  -0.34902997   0.39843709   0.81458147  0.075885363  0.075547638    0.0788509 
 4148000   0.49521379  0.075032289    -0.352266   0.39051754   0.79728848  0.075420111  0.077050556  0.072626199 
 4149000   0.49603783   0.07918956  -0.35055772   0.39346182   0.82277049  0.078095206  0.079311186  0.080162288 
 4150000   0.49737268  0.077108312  -0.34972854   0.39629318   0.81431882  0.077517771  0.075729409  0.078077757 
 4151000   0.49935686  0.074647515  -0.35321617   0.39578166   0.80046663  0.076477481  0.074556402   0.07290866 
 4152000   0.49850227  0.073040932  -0.35341506   0.39430096   0.79027619   0.07356378  0.072529528  0.073029488 
 4153000   0.49332264  0.075644224  -0.34990133   0.39004563   0.80013404  0.075496581  0.077098215  0.074337875 
 4154000   0.49960775  0.075637098  -0.34882079   0.40055337   0.81060314  0.076244071  0.076204293   0.07446293 
 4155000   0.49766353  0.075740484   -0.3494478   0.39701017   0.80762043   0.07747976  0.073277392  0.076464301 
 4156000   0.50006818  0.075767888  -0.35230617   0.39775859   0.80851741  0.076185203  0.076207764  0.074910697 
 4157000   0.50037728  0.074539705  -0.35109226   0.39943614   0.80353664  0.072754755   0.07433772  0.076526639 
 4158000   0.49501993  0.074339644  -0.35076646   0.39172631   0.79474222  0.072723445  0.074042499  0.076252988 
 4159000   0.49623737  0.076241537  -0.35110785   0.39321098   0.80653759  0.077444714  0.073241002  0.078038895 
 4160000   0.49808993  0.077758187  -0.34748037   0.39961717   0.82116596  0.079198923  0.078252236  0.075823403 
 4161000   0.49801094  0.077008788  -0.34911102   0.39786804   0.81535413  0.075844056  0.078408609    0.0767737 
 4162000   0.49723452  0.076409807  -0.35108267   0.39473182   0.80897066  0.076799623  0.078300157   0.07412964 
 4163000   0.49973594  0.077921409  -0.34997962   0.39958681   0.82202047  0.074818351  0.080708064  0.078237812 
 4164000   0.50013866  0.077140941  -0.34786824   0.40230223   0.82050476  0.078192493  0.077814535  0.075415796 
 4165000   0.50636905  0.077956152  -0.35017656   0.40933904   0.83196105  0.077292077    0.0795587   0.07701768 
 4166000   0.50591437  0.075676046  -0.35276684   0.40606676   0.81632769  0.075052854  0.076772538  0.075202746 
 4167000   0.50126923  0.075791375   -0.3507096   0.40115664    0.8120428  0.073677959  0.074406067  0.079290098 
 4168000   0.49973414  0.079163094  -0.34640556   0.40315818   0.83232336  0.077312742  0.081752476  0.078424063 
 4169000   0.50398878   0.07648331  -0.35002591   0.40591947    0.8205568  0.077425578  0.075057831  0.076966522 
 4170000    0.5022964  0.074922195   -0.3473333   0.40607362   0.81224771  0.075700467   0.07534549  0.073720627 
 4171000   0.50264394  0.077071586  -0.34951757   0.40441065   0.82223718  0.076602728  0.075981047  0.078630983 
 4172000   0.50028318  0.073472818  -0.35018973   0.40019752   0.79851413  0.070134402  0.076521195  0.073762857 
 4173000   0.50079611  0.076552227  -0.35178844   0.39936817   0.81437911  0.075932935  0.077378951  0.076344795 
 4174000   0.49816439  0.075622376  -0.35309761   0.39411161   0.80408157  0.074722323  0.076436039  0.075708766 
 4175000   0.49708092  0.076118488  -0.35235796   0.39322614   0.80588567  0.075107781  0.075699173  0.077548511 
 4176000   0.50265746  0.073341429  -0.35295015   0.40099835   0.79860266  0.073040639  0.073479598  0.073504049 
 4177000   0.50248602  0.074809666  -0.35203363   0.40165771   0.80722174  0.076568874  0.075342113  0.072518012 
 4178000   0.50083319  0.077282036  -0.34849628   0.40271594   0.82168338  0.076412745  0.078290291  0.077143071 
 4179000   0.50106733  0.077146079  -0.35147852    0.4000849   0.81831528  0.076878089  0.076076103  0.078484045 
 4180000   0.49777337  0.075879083  -0.34717508   0.39944764   0.81080928  0.074690589  0.077243034  0.075703626 
 4181000   0.49436661  0.075820235  -0.35068994    0.3908229   0.80186551  0.077589205  0.074843761  0.075027738 
 4182000   0.49651189  0.076734471  -0.35032808   0.39440252   0.81040146  0.075920744  0.077054114  0.077228556 
 4183000      0.49957  0.077678923  -0.35235989   0.39695764   0.81807672  0.074212162  0.079557871  0.079266737 
 4184000    0.4985685  0.075792488  -0.35022458   0.39759077   0.80848296  0.075103882  0.076370193  0.075903389 
 4185000   0.49828643  0.074921544  -0.35126984   0.39612243   0.80229298  0.075077679   0.07509688  0.074590073 
 4186000   0.49465622  0.075169313  -0.34905313   0.39289411   0.80040789  0.077120678  0.073958433  0.074428828 
 4187000   0.49860281   0.07554964  -0.34903247   0.39883436      0.80841  0.073938198   0.07380224  0.078908482 
 4188000   0.50382942  0.076203017  -0.34938663   0.40631972    0.8194375  0.076753599  0.076178104  0.075677349 
 4189000   0.50413351  0.075650066  -0.35055924   0.40560322    0.8157233  0.075415717  0.075448365  0.076086116 
 4190000   0.50221979   0.07755599  -0.35026199   0.40303003   0.82348265  0.077526286  0.076085133  0.079056552 
 4191000   0.50246371   0.07953158  -0.34905143   0.40460644   0.83576929  0.080121533  0.079534969  0.078938238 
 4192000   0.50221102  0.077106164  -0.35029987     0.402979   0.82099299  0.076214922  0.079244343  0.075859228 
 4193000   0.50189825  0.078722081  -0.34724998   0.40555976   0.83233409   0.08080371  0.077464034  0.077898498 
 4194000   0.49893331   0.07557498   -0.3488646   0.39949795   0.80921097  0.077822023  0.077146145  0.071756772 
 4195000   0.49713234  0.076930627  -0.34980202   0.39585921   0.81292156  0.077516616  0.078918903  0.074356364 
 4196000    0.4969622  0.078141875  -0.34793509   0.39747094   0.82109981  0.079601758   0.07652285  0.078301017 
 4197000   0.49506758  0.075650751  -0.35089605   0.39166819   0.80179198  0.074283753  0.076220845  0.076447655 
 4198000   0.49624079  0.077429158  -0.35035222   0.39397175   0.81373678  0.076473842   0.07878132  0.077032313 
 4199000   0.49939401  0.076390263  -0.35058941   0.39846414   0.81259704  0.075341688  0.073991061  0.079838042 
 4200000   0.49877555    0.0774292  -0.35056661   0.39755932   0.81732458  0.077311651  0.079844004  0.075131945 
 4201000   0.49858635  0.076311862  -0.35190603   0.39593609   0.80964395  0.076366596  0.073457035  0.079111955 
 4202000   0.49377534  0.075568537  -0.35183155   0.38879443   0.79847252  0.075620599  0.075755224  0.075329788 
 4203000   0.50021514  0.077829943  -0.34863689   0.40164831    0.8235861  0.077518019  0.078690483  0.077281327 
 4204000   0.50186968  0.077062931  -0.34960194   0.40316493   0.82094455  0.078722971  0.078043223    0.0744226 
 4205000   0.49814996  0.073948331  -0.35080357   0.39638401   0.79727851  0.075315743  0.075249923  0.071279326 
 4206000   0.49426909  0.078247317  -0.34908631   0.39228026   0.81648076  0.076867511  0.081246261   0.07662818 
 4207000   0.49982971  0.075322832  -0.35093791   0.39876917   0.80711523  0.074547462  0.075136601  0.076284434 
 4208000   0.49745811  0.077658834   -0.3505841   0.39556576   0.81657593  0.075004839   0.08187869  0.076092974 
 4209000    0.4972218  0.077790143  -0.34945832    0.3963371   0.81805913   0.07995532  0.076342757  0.077072351 
 4210000   0.50257257  0.076661352  -0.35021936    0.4036018   0.81920434  0.077382229  0.075721689  0.076880139 
 4211000   0.50377181  0.078677354  -0.34832551   0.40729442   0.83382627  0.079073087  0.078033598  0.078925379 
 4212000   0.50471925  0.078342459  -0.34727443   0.40976659   0.83448288  0.077658526  0.078899477  0.078469373 
 4213000   0.49847072    0.0786718  -0.34559699   0.40207171   0.82857345  0.078453503  0.079317152  0.078244745 
 4214000   0.50037735  0.078210959  -0.34537398   0.40515452   0.82915791  0.077507805    0.0796423  0.077482771 
 4215000   0.50106576  0.075845807  -0.35080284   0.40075822   0.81193946  0.076920815  0.076016297   0.07460031 
 4216000   0.49682545  0.073513721  -0.35186235   0.39333857   0.79187692  0.074717333  0.073575484  0.072248347 
 4217000   0.49473251  0.075820294  -0.34755171   0.39450995   0.80555288  0.077092988  0.076423979  0.073943913 
 4218000   0.49690495  0.075976895  -0.35213111   0.39318904   0.80508094  0.074781296  0.078835136  0.074314251 
 4219000   0.49569503  0.076131755  -0.34838532   0.39512005    0.8078515  0.077581787  0.075663725  0.075149754 
 4220000   0.50150473  0.078681123  -0.34921162   0.40300786   0.82956015  0.078397863  0.079428851  0.078216656 
 4221000   0.49892738  0.075785529  -0.35124481   0.39710884    0.8079633  0.076930987   0.07456679  0.075858811 
 4222000   0.49798246  0.076495895  -0.34694655   0.39998979   0.81469535  0.075064053  0.075978673  0.078444961 
 4223000   0.49832618  0.076216767  -0.34909874   0.39835315   0.81154547  0.079214755  0.075561506   0.07387404 
 4224000   0.50094869  0.076506232  -0.35045589   0.40092957   0.81569116   0.07336988  0.078179586  0.077969231 
 4225000   0.50008612  0.075053244  -0.35089462   0.39919706    0.8060816  0.075581552   0.07576196   0.07381622 
 4226000   0.49517829  0.075652757  -0.34807571   0.39465458   0.80478925  0.076254642  0.075472771  0.075230857 
 4227000   0.49967655   0.07323145  -0.35363632   0.39584103   0.79284912  0.072848988  0.072649516  0.074195845 
 4228000    0.4952592  0.077198525  -0.34863806   0.39421359   0.81272829  0.075784387  0.077950587  0.077860601 
 4229000   0.50020533  0.075182931  -0.34898639   0.40128409    0.8088717  0.074516406  0.075205768  0.075826619 
 4230000   0.49695704  0.075659907  -0.35075877   0.39463952   0.80481295  0.073131184   0.07799135  0.075857187 
 4231000   0.49818062   0.07815948  -0.35028287   0.39695069     0.820675  0.076925832  0.077379666  0.080172943 
 4232000   0.50406705   0.07563394  -0.35038466    0.4056781   0.81571076  0.075561404  0.077391777   0.07394864 
 4233000   0.50358497  0.076805831  -0.35086754   0.40447214   0.82085794  0.078273243  0.077525716  0.074618535 
 4234000   0.49624911  0.074002524  -0.35033957   0.39399688   0.79518517   0.07509381  0.073407495  0.073506268 
 4235000   0.49988715  0.076396668  -0.34989846   0.39989478    0.8140624  0.077252966  0.075267985  0.076669053 
 4236000   0.50187421  0.075358568  -0.34983152   0.40294216   0.81148195  0.072813301  0.076882946  0.076379457 
 4237000   0.50348334  0.076049228  -0.34918058   0.40600666    0.8182907  0.075648929  0.077448026  0.075050728 
 4238000    0.4991958  0.078167754  -0.34700122   0.40175503    0.8255242  0.081426429  0.075448114  0.077628718 
 4239000   0.50150547  0.073783538  -0.34939542   0.40282518    0.8028263  0.075266373   0.07472061  0.071363631 
 4240000   0.50656182  0.076457393  -0.35119328   0.40861145   0.82310828  0.075398992  0.078246119  0.075727069 
 4241000   0.50120067  0.075739729  -0.35009421    0.4016692   0.81227537  0.077937377  0.072157831  0.077123979 
 4242000   0.50036551  0.075326772  -0.35011354    0.4003972   0.80876461  0.073466476   0.07579965  0.076714189 
 4243000   0.50193652  0.076972465  -0.34947223   0.40339489   0.82068407  0.078109512   0.07667242  0.076135463 
 4244000   0.50216387    0.0773033  -0.34593461   0.40727353   0.82635625  0.080335692  0.076278313  0.075295895 
 4245000   0.50589496  0.078097968  -0.34665118   0.41215332   0.83554416  0.080183413  0.080302965  0.073807526 
 4246000   0.50276998   0.07751362  -0.34783941   0.40627785   0.82650078  0.077191826  0.079532181  0.075816853 
 4247000   0.50243338  0.075944428  -0.35163969   0.40197269   0.81368859  0.076857988  0.077303144  0.073672153 
 4248000   0.49991765  0.074393561  -0.35052744   0.39931154   0.80261975  0.075302229  0.073691293   0.07418716 
 4249000   0.49772082  0.074461492   -0.3518181   0.39472579   0.79840228  0.073823256  0.077157064  0.072404155 
 4250000   0.49492508  0.074760095  -0.34954332   0.39280718   0.79810247  0.075862127  0.074858006  0.073560152 
 4251000   0.49873696  0.077167729   -0.3498039   0.39826414    0.8166119  0.076261983  0.078246131  0.076995075 
 4252000   0.50152002  0.077360876  -0.35148947   0.40075295    0.8201478   0.07544225  0.077093219  0.079547159 
 4253000   0.49937896  0.078109465  -0.34903635   0.39999463    0.8234478  0.078848154  0.077799825  0.077680414 
 4254000   0.50059092  0.078208737  -0.35211364   0.39873519   0.82272653   0.07691264  0.077688718  0.080024855 
 4255000   0.49766287  0.074135899  -0.35100312   0.39545385   0.79736521  0.073336696  0.074907373  0.074163629 
 4256000   0.49782293  0.074640405  -0.35123449   0.39546256   0.80010899  0.072793815  0.076071356  0.075056045 
 4257000   0.50474199  0.079122773  -0.34976762   0.40730751    0.8362541  0.077035766   0.08109723  0.079235324 
 4258000   0.50051982  0.076443779  -0.35017611   0.40056608    0.8149891  0.074807247  0.078097853  0.076426238 
 4259000   0.50422131  0.077325383  -0.34829301   0.40800114   0.82720358  0.074740602  0.077493873  0.079741675 
 4260000   0.50445864  0.076685766  -0.34742287   0.40922725   0.82496215  0.077856056  0.078585785  0.073615457 
 4261000   0.50242052  0.077978308  -0.34908943   0.40450367    0.8272458  0.075168682  0.080909819  0.077856423 
 4262000    0.5009575  0.077841599  -0.34846778   0.40293089   0.82493188  0.079439843  0.078314648  0.075770307 
 4263000   0.50558348  0.078920355  -0.35081941    0.4075179   0.83536712   0.07739864   0.08094077  0.078421654 
 4264000   0.50334196   0.07536323  -0.34908665   0.40588855    0.8144536  0.077471843  0.075999672  0.072618174 
 4265000   0.49995008  0.076950963  -0.34960037   0.40028726   0.81745986  0.078004555  0.074706601  0.078141732 
 4266000    0.4971098  0.074903604  -0.35113304   0.39449437   0.80056767  0.073874587  0.074748363  0.076087863 
 4267000   0.49972177  0.077032377  -0.34868004   0.40086514   0.81847911  0.073945159  0.078196096  0.078955875 
 4268000   0.49952819  0.075554668  -0.35316914   0.39608569   0.80568859  0.076918436  0.074250562  0.075495008 
 4269000   0.49973149  0.075883069  -0.34746308   0.40209668   0.81347993   0.07568709  0.074513438  0.077448677 
 4270000   0.50332855  0.076526164  -0.35094881   0.40400627   0.81887592  0.076561349  0.075850417  0.077166727 
 4271000   0.50020247   0.07587606  -0.34636813   0.40389806   0.81524331  0.077956719  0.077677893  0.071993567 
 4272000   0.50313491  0.077193541  -0.35053382    0.4041308   0.82261849  0.078456413   0.07341949  0.079704721 
 4273000   0.50420594  0.075610589  -0.35221071   0.40406038   0.81396645  0.074397427  0.077254003  0.075180338 
 4274000   0.50143527  0.077229491  -0.35112884   0.40098647   0.81966905  0.075791778  0.079164694     0.076732 
 4275000   0.49734707  0.074798836  -0.35519619   0.39078712   0.79629244  0.074573611  0.074400366  0.075422533 
 4276000   0.49793084  0.076698694  -0.35072561   0.39613331   0.81193829  0.075952299  0.077393943  0.076749839 
 4277000   0.50053454  0.076363514  -0.35011682   0.40064745   0.81463533  0.077245564  0.075443451  0.076401526 
 4278000   0.50294329  0.076051691  -0.35021289   0.40416433   0.81646172  0.074507976  0.075495917  0.078151179 
 4279000   0.50791622  0.076446498  -0.35233222   0.40950401   0.82394177  0.076802958  0.075405183  0.077131353 
 4280000   0.50386862  0.080827126  -0.34967898   0.40608615   0.84427252  0.081684172  0.079136792  0.081660415 
 4281000   0.50033118  0.077747272  -0.35037122   0.40008803   0.82157764  0.080380823  0.075855699  0.077005293 
 4282000   0.49926415  0.075059657  -0.34924919   0.39960958   0.80652889  0.076889124  0.074442876  0.073846971 
 4283000   0.49977431  0.075397132  -0.35123704   0.39838694   0.80713579  0.075242649  0.077250149  0.073698597 
 4284000   0.50174552  0.077615957  -0.34816291   0.40441774   0.82519546  0.078602207  0.077795946  0.076449717 
 4285000   0.50326223  0.079708566   -0.3457979    0.4090577   0.84118004  0.080905548  0.077744397  0.080475754 
 4286000   0.50001967  0.076377015  -0.34769858   0.40229343    0.8163545  0.076825257   0.07744193  0.074863859 
 4287000   0.49867225  0.075564801  -0.35021662   0.39775435   0.80741218  0.075108793  0.076404836  0.075180775 
 4288000   0.49702074  0.076680243  -0.35024638   0.39524745    0.8109524  0.074569599  0.078604795  0.076866334 
 4289000   0.49618564  0.076613484  -0.34943576   0.39480548   0.81014852  0.075838222  0.077070071   0.07693216 
 4290000   0.50024406  0.075415544  -0.34835289   0.40197568   0.81082435  0.076141236  0.074349242  0.075756154 
 4291000   0.49680979   0.07429823  -0.34970756   0.39546987   0.79826127  0.073471792  0.070956149  0.078466749 
 4292000   0.49860626  0.078402509  -0.35003812   0.39783388   0.82287572  0.080089674  0.075295745   0.07982211 
 4293000   0.49943589  0.075464827  -0.34914522   0.39997116   0.80908701   0.07739902  0.074185974  0.074809488 
 4294000   0.49618281    0.0752988  -0.35077711   0.39345989   0.80167565   0.07420662   0.07663086   0.07505892 
 4295000   0.49971925  0.076199512  -0.35325456   0.39628683   0.80938561  0.075439304   0.07801584  0.075143391 
 4296000   0.49831214   0.07415795  -0.35046712   0.39696371   0.79899461  0.071051451  0.076387675  0.075034723 
 4297000   0.49419993  0.075553189  -0.35038847   0.39087436   0.80046924   0.07781114  0.073160782  0.075687644 
 4298000   0.49636593  0.075814471   -0.3512938   0.39321786   0.80422923  0.074152525  0.076310868  0.076980019 
 4299000   0.49914284  0.074553019  -0.35303184   0.39564499   0.79981767  0.074188054  0.075075844  0.074395158 
 4300000   0.49836781  0.077242744  -0.34725541   0.40025892   0.81901335     0.077924  0.076650573   0.07715366 
 4301000   0.50047417  0.078367149   -0.3486951   0.40197862   0.82682876  0.080276486  0.077094921   0.07773004 
 4302000   0.50217954  0.078461812  -0.34991407   0.40331758   0.82868092  0.077876234   0.08047678  0.077032422 
 4303000   0.50564718  0.076134352  -0.34793328   0.41049957    0.8232451   0.07831683  0.074684551  0.075401674 
 4304000   0.49625649  0.076600828  -0.34933198   0.39501554   0.81028997  0.076623402  0.076381147  0.076797935 
 4305000   0.49964202  0.072743803  -0.35162278   0.39780278    0.7921672  0.071086736  0.071539658  0.075605017 
 4306000    0.5047081  0.079546423  -0.34596037   0.41106393   0.84230724  0.080185847  0.078793331   0.07966009 
 4307000   0.49668101   0.07658774   -0.3512143   0.39376997   0.80897344  0.078524293  0.074140389  0.077098537 
 4308000   0.49868831  0.073475874  -0.35090198   0.39709309   0.79542627  0.072290413   0.07539193  0.072745278 
 4309000   0.50169467  0.075491647  -0.35000836   0.40249603   0.81175727  0.074998364    0.0748261  0.076650477 
 4310000   0.49899641  0.076914187  -0.35122976   0.39722742   0.81420065  0.079301449   0.07564164  0.075799472 
 4311000    0.4998607  0.077402744  -0.35097716   0.39877639   0.81839823  0.075692028  0.078450659  0.078065546 
 4312000   0.49872705  0.078252254  -0.35065844   0.39739473     0.821622  0.079162435  0.079171725  0.076422602 
 4313000   0.50020752  0.078745154  -0.34817469   0.40209907   0.82899848  0.078389921  0.076647283  0.081198257 
 4314000   0.50218424   0.07636163  -0.34928293   0.40395576   0.81793343  0.075936942  0.076712565  0.076435383 
 4315000   0.50238855    0.0760311  -0.35080508   0.40274006   0.81492582  0.076434455  0.074109178  0.077549666 
 4316000   0.50191409  0.076203752  -0.35054244   0.40229106   0.81541282  0.074760499  0.078924186  0.074926572 
 4317000   0.50111114  0.078218431  -0.34950229   0.40212684   0.82617074   0.07747673  0.079919905  0.077258658 
 4318000   0.49165835  0.073083103  -0.34865566   0.38879499   0.78499884  0.073112873  0.073872885   0.07226355 
 4319000   0.49831019  0.076165976  -0.35314674   0.39428117   0.80719814  0.077526085   0.07516686  0.075804984 
 4320000   0.49696633  0.076494947  -0.35023429   0.39517793   0.80987834  0.076529005  0.078192481  0.074763355 
 4321000   0.49882364  0.077137184  -0.35426784   0.39393021   0.81211237  0.077633812  0.078592396  0.075185343 
 4322000   0.49666673  0.075358265  -0.34857548   0.39638736    0.8049255  0.074250355  0.074457747  0.077366693 
 4323000   0.49832591  0.076413159  -0.34894814   0.39850336   0.81276037  0.076790684  0.076765903   0.07568289 
 4324000   0.49776572   0.07723251  -0.34888125   0.39772999   0.81642894  0.073970068  0.080240093   0.07748737 
 4325000   0.50214847  0.075774216  -0.35208904   0.40109599   0.81188912  0.075605444  0.075034707  0.076682496 
 4326000   0.50251746  0.079585244  -0.34714816   0.40659035   0.83804412  0.076376515  0.082284141  0.080095074 
 4327000   0.49984006  0.077355521  -0.34856431   0.40115829   0.82052411  0.078519002  0.076961429  0.076586131 
 4328000   0.49660271  0.074618879  -0.35267273    0.3921941   0.79672382  0.074822842  0.074644515  0.074389279 
 4329000   0.49852061  0.076580815  -0.35239864   0.39534488   0.81051081  0.078538511   0.07467692  0.076527013 
 4330000   0.50174869   0.07787233  -0.35001939   0.40256601    0.8247336  0.077696871   0.07638652    0.0795336 
 4331000   0.49976899  0.077687644  -0.34906532   0.40055068   0.82171704  0.078214052  0.078038207  0.076810674 
 4332000   0.49703177  0.075410825  -0.34990014   0.39561023   0.80443331  0.075356677  0.075876516  0.074999281 
 4333000   0.49463884  0.073991039  -0.35305111   0.38887004   0.78999608  0.072307323  0.074131363  0.075534432 
 4334000   0.49738943  0.078710851  -0.34997855   0.39606829   0.82278173  0.078545553  0.079433669  0.078153331 
 4335000   0.49916959   0.07691888  -0.34985893   0.39885801   0.81585668  0.077177323  0.076458384  0.077120932 
 4336000   0.49473682  0.074353417  -0.35251155   0.38955657   0.79264716  0.075676042  0.074144282  0.073239926 
 4337000   0.49636568  0.075310079  -0.35206978   0.39244152   0.80071843  0.073692985  0.075615829  0.076621424 
 4338000   0.49562503  0.077915241  -0.34905657    0.3943438   0.81674403  0.081070989  0.077347973  0.075326762 
 4339000   0.49753775  0.076614774  -0.35132897   0.39494034   0.81029037  0.076048655   0.07520445  0.078591219 
 4340000   0.49704728  0.076088855  -0.35108295   0.39445069   0.80694957  0.077536506  0.071453882  0.079276179 
 4341000   0.49828367  0.075607187  -0.34879776   0.39859037   0.80847799  0.075168666   0.07330118  0.078351714 
 4342000   0.49925612  0.074482305   -0.3530217   0.39582503   0.79961436  0.075272958   0.07374756  0.074426399 
 4343000    0.4984679   0.07827823  -0.34822515   0.39943931    0.8238074  0.076571441  0.079712782  0.078550466 
 4344000   0.50319781  0.075172553  -0.35215359   0.40260539   0.81013673  0.074997845  0.075412505  0.075107309 
 4345000   0.50484083  0.076483229  -0.35119478    0.4060286   0.82066549   0.07597395  0.076785014  0.076690722 
 4346000   0.50280837  0.077993924  -0.35265667   0.40151818   0.82434496  0.078284828  0.080167912  0.075529032 
 4347000   0.50012517  0.079293088  -0.34629283   0.40385741   0.83372732   0.07961539  0.080120236   0.07814364 
 4348000   0.50160334  0.077722297  -0.35132466   0.40104273   0.82239695  0.081873637  0.075269117  0.076024138 
 4349000   0.50070859  0.076564773   -0.3493778   0.40164753   0.81672649  0.075395642  0.077993368  0.076305311 
 4350000   0.49672839  0.075717327  -0.35091084    0.3941445   0.80462922  0.075092524  0.077678666  0.074380791 
 4351000   0.49402618  0.075785561  -0.34956547   0.39143674   0.80229137   0.07385142  0.078243339  0.075261923 
 4352000   0.49519357  0.075259511  -0.34922036   0.39353285   0.80153562  0.073918241  0.075384463  0.076475828 
 4353000   0.49682567  0.077112614  -0.35043462   0.39476663   0.81281559  0.077898692  0.077449979  0.075989171 
 4354000   0.49912022  0.077608164  -0.34940413   0.39923877   0.81997424  0.078791586   0.07878426  0.075248646 
 4355000   0.49887817  0.076214737  -0.35057357   0.39770627   0.81088759  0.077204235  0.077475208  0.073964769 
 4356000   0.50075573  0.076450698  -0.35001063    0.4010854   0.81554593  0.076551416  0.077156237  0.075644442 
 4357000   0.50272051  0.075648028  -0.34996309   0.40407998     0.814189  0.075508184  0.076955585  0.074480314 
 4358000   0.49983688  0.076776016  -0.34985297   0.39986486   0.81608902    0.0768113  0.075756978  0.077759769 
 4359000   0.50079842  0.074892619  -0.34894825   0.40221183   0.80822557  0.073810765  0.077126176  0.073740916 
 4360000    0.5008695  0.076126492  -0.34958854   0.40167815   0.81438107  0.075352135  0.075305191  0.077722149 
 4361000   0.50295991  0.076519989  -0.35048265   0.40391949   0.81875566  0.077708199  0.078171932  0.073679836 
 4362000   0.50161693  0.076575518  -0.35409984   0.39828794   0.81342515  0.075599193  0.077614477  0.076512883 
 4363000   0.49747576   0.07829162  -0.34818002   0.39799631   0.82243699  0.076313248  0.078833678  0.079727936 
 4364000   0.49932813  0.077946157  -0.35055049   0.39840426   0.82097209  0.077480361  0.078826605  0.077531506 
 4365000   0.49628483  0.073258993  -0.35050466   0.39388536   0.79104276    0.0749693  0.072287804  0.072519874 
 4366000   0.49844859  0.076014922  -0.35226254   0.39537297   0.80747104  0.075985363  0.075760705  0.076298698 
 4367000   0.49753636  0.076004625   -0.3505189   0.39574833   0.80779057  0.077313914  0.076383111  0.074316849 
 4368000   0.49517251  0.076538592   -0.3466781   0.39604353   0.81098056  0.076920604  0.076371388  0.076323784 
 4369000    0.4963566  0.075407348  -0.34965411   0.39484356   0.80364779  0.077782259   0.07426977  0.074170014 
 4370000   0.49728513  0.075799413  -0.34686896   0.39902144   0.80995117  0.076193957  0.075278425  0.075925858 
 4371000   0.50358679    0.0774383  -0.34938643   0.40595599   0.82577058  0.077085035  0.076599883  0.078629981 
 4372000   0.50155952  0.078194816  -0.34965954   0.40264213     0.826558  0.077878081  0.079799886  0.076906481 
 4373000   0.50078355  0.073713162  -0.35035377     0.400784   0.80040358  0.075283364  0.072249892  0.073606229 
 4374000    0.5038218  0.077570123  -0.35106668   0.40462822   0.82515747  0.075887958  0.079590771   0.07723164 
 4375000   0.49902372  0.077592305  -0.34868388   0.39981428   0.82046378  0.074225809  0.078002447   0.08054866 
 4376000    0.4992057  0.075853462  -0.34891746   0.39985365   0.81107639  0.075887774  0.074530639  0.077141972 
 4377000   0.49682474  0.076486961  -0.34973967   0.39546018    0.8101173  0.078627016  0.074360673  0.076473194 
 4378000   0.50218484   0.07829831  -0.34908358   0.40415602   0.82863297  0.078002744  0.078937938  0.077954249 
 4379000   0.49656275  0.077568621  -0.35142706   0.39337982   0.81390092  0.078269186  0.077494702  0.076941976 
 4380000   0.49796729  0.075252021  -0.35356978   0.39334381   0.80130598   0.07433004  0.076125835   0.07530019 
 4381000   0.49651108  0.074249997  -0.35165429   0.39307508     0.795605  0.072518107   0.07337381  0.076858075 
 4382000   0.49777632  0.075410846  -0.35296585    0.3936613    0.8024845   0.07736982  0.074365591  0.074497127 
 4383000   0.49891643  0.077492346  -0.34640734   0.40192989   0.82203748  0.079437619  0.077581153  0.075458265 
 4384000   0.50306481  0.078830238   -0.3493935   0.40516599   0.83252667  0.077732512  0.078351888  0.080406315 
 4385000   0.50186779  0.077634325  -0.35082069   0.40194335   0.82282065  0.078777611  0.076735381  0.077389984 
 4386000   0.49363638  0.075746059   -0.3523187   0.38809885   0.79873933  0.076789813  0.074325481  0.076122882 
 4387000   0.49595189  0.074327068  -0.35360676   0.39028389   0.79323162  0.074854147  0.074336953  0.073790103 
 4388000   0.49533978  0.074625296  -0.35093216   0.39204035   0.79660486  0.073250159  0.074752468   0.07587326 
 4389000   0.49992164  0.076693727  -0.35209384   0.39775114   0.81352919  0.073275249  0.077927799  0.078878133 
 4390000    0.4996353  0.075873164  -0.34969212   0.39972336   0.81105291  0.074553112  0.075011861  0.078054518 
 4391000    0.5048214  0.076457183    -0.352984   0.40421024   0.81870592  0.076490783  0.074741811  0.078138953 
 4392000   0.50505123  0.076417383   -0.3514268   0.40611217   0.82039209  0.076249085  0.077691378  0.075311686 
 4393000   0.49531656  0.075050338  -0.34992688   0.39301081    0.7998796  0.074086947  0.076032451  0.075031616 
 4394000   0.49854641  0.074634778  -0.34911201   0.39867022   0.80328614   0.07485697  0.073544859  0.075502505 
 4395000   0.49906052  0.076116981  -0.34927277   0.39928058   0.81193193  0.077230518  0.072903124  0.078217301 
 4396000   0.50159024  0.077165536  -0.35016779   0.40217995   0.82051581  0.076859416  0.077882059  0.076755132 
 4397000   0.50123048  0.075823935  -0.35149857   0.40030956   0.81137223  0.077045377  0.073235858  0.077190569 
 4398000   0.50291468  0.076217949  -0.34979528   0.40453902   0.81773775  0.074996934  0.076000021  0.077656892 
 4399000   0.50164457  0.075377851  -0.34877168   0.40365754   0.81230187   0.07443581  0.077731337  0.073966406 
 4400000   0.50177134  0.076429277   -0.3514981   0.40112128   0.81546568   0.07799819  0.076695326  0.074594314 
 4401000   0.50134704  0.079172986  -0.34998106   0.40200189    0.8312207  0.077788338  0.077926477  0.081804141 
 4402000   0.49381399  0.074782664  -0.35324587   0.38743808   0.79285573   0.07502183  0.074068121  0.075258039 
 4403000   0.49686721  0.076714964  -0.34867684   0.39658671   0.81247989  0.075881485  0.076994458  0.077268948 
 4404000    0.4980504  0.076989746  -0.35188355    0.3951547   0.81253755  0.073538979  0.077723058    0.0797072 
 4405000   0.49651843  0.077592288   -0.3505147    0.3942257    0.8148751   0.07755304  0.078181823     0.077042 
 4406000   0.49740146  0.076029298  -0.35027629    0.3957886    0.8079646  0.075256331  0.075867582  0.076963981 
 4407000   0.49849268   0.07478909  -0.35069712   0.39700452     0.802457  0.070908681  0.078089569  0.075369019 
 4408000   0.49837326  0.076732059    -0.350284   0.39723851   0.81322437   0.07515645  0.076730176  0.078309553 
 4409000   0.50512534  0.078154136  -0.35331944   0.40433069   0.82802603  0.076485864   0.07814423  0.079832313 
 4410000   0.50386155  0.078110325  -0.34933523    0.4064193   0.82987713   0.07642409   0.07849176  0.079415124 
 4411000   0.49879989  0.078046872  -0.34812448   0.40003794   0.82315177  0.079247448  0.075981254  0.078911915 
 4412000   0.49632664  0.076191772  -0.34877278   0.39567995   0.80873677  0.075193085  0.077355028  0.076027203 
 4413000   0.49915688  0.075866167  -0.35268925   0.39600862   0.80730024  0.076523272  0.074216089   0.07685914 
 4414000   0.49998125  0.075344099  -0.35006722   0.39986716    0.8083285  0.077116837  0.073323118  0.075592342 
 4415000   0.50409925  0.075930256  -0.34653718   0.40957388   0.82121295  0.076612301  0.074477678  0.076700787 
 4416000   0.49874541  0.079279752  -0.35041893   0.39766178    0.8274594  0.078695109  0.078342926  0.080801221 
 4417000   0.49671008  0.074288499  -0.34878504   0.39624283   0.79898147  0.074342682  0.072983075  0.075539739 
 4418000   0.49949476  0.075494702  -0.35166307   0.39754161   0.80681942   0.07546964  0.076582511  0.074431956 
 4419000   0.49737105  0.076703701  -0.35168161   0.39433767    0.8101698  0.076405318  0.077936453  0.075769333 
 4420000   0.49468866  0.074858421  -0.35305594   0.38893995    0.7947683  0.074681035  0.074637442  0.075256786 
 4421000   0.49375567  0.075127182  -0.35049607    0.3901004   0.79738578  0.075789929  0.077968219  0.071623398 
 4422000   0.50011967  0.076390515  -0.35026591   0.39987608   0.81401034  0.077949659  0.076427939  0.074793947 
 4423000   0.50184467  0.074563207  -0.35055523   0.40217413   0.80640205  0.075710477  0.075723908  0.072255236 
 4424000   0.50649472  0.077710887  -0.34944337   0.41026073   0.83155309  0.078108479  0.076972747  0.078051434 
 4425000   0.50053099  0.076255666  -0.34871864    0.4020403    0.8154435  0.075836242  0.073634221  0.079296534 
 4426000   0.50059147  0.076349301  -0.34928942   0.40156024   0.81547106  0.076386508  0.073094815  0.079566581 
 4427000   0.50138062  0.078833291  -0.34760409   0.40442923   0.83180646  0.080581669  0.078639697  0.077278508 
 4428000   0.50275361  0.076318763  -0.35245046   0.40164225   0.81538752  0.074614491  0.076733129   0.07760867 
 4429000    0.5028348  0.079097127  -0.34670681   0.40750767   0.83631523   0.07819489  0.080075665  0.079020827 
 4430000   0.50434988  0.078306684  -0.35040604   0.40608096    0.8306033  0.076931022  0.075624716  0.082364313 
 4431000   0.50223031  0.077736718  -0.35025038   0.40305741   0.82448981  0.077119474  0.077663033  0.078427646 
 4432000   0.49993039  0.076052913  -0.34934418   0.40051391   0.81281794  0.074877231  0.075877304  0.077404204 
 4433000   0.49914496  0.073109278   -0.3519754    0.3967046   0.79305036  0.072564231  0.071923465  0.074840138 
 4434000   0.49996943  0.077341086  -0.34934215    0.4005745   0.81986206  0.078335985  0.077222651  0.076464621 
 4435000   0.50212005  0.077256163  -0.35273704   0.40040538   0.81923256  0.076374137  0.078429135  0.076965218 
 4436000   0.49779222  0.076979299  -0.34719772   0.39945328    0.8167795  0.076829677  0.075458045  0.078650175 
 4437000   0.49823016  0.074212538  -0.35106304   0.39624482   0.79857166  0.075227695  0.073824434  0.073585484 
 4438000   0.49702699  0.077953091  -0.34820667   0.39729654   0.81990195  0.080130053  0.075605889  0.078123331 
 4439000   0.49920497  0.076330868  -0.34983932   0.39893069   0.81274158  0.077376187  0.077353499  0.074262918 
 4440000   0.50335347  0.078366857  -0.34988621   0.40510624    0.8299548  0.077772624  0.080665938  0.076662009 
 4441000   0.50220068  0.077501069    -0.348329   0.40493436   0.82508924    0.0751027  0.078005938  0.079394569 
 4442000   0.50128675  0.075464362  -0.34917649   0.40271604   0.81182936  0.075210553  0.077392007  0.073790527 
 4443000   0.50172796  0.076825232  -0.35055166   0.40200265   0.81849363  0.077052176   0.07671322    0.0767103 
 4444000   0.49946966  0.078275791  -0.34771382   0.40145321   0.82580808  0.078282701  0.077662794  0.078881878 
 4445000   0.50025536  0.077204391  -0.34902996   0.40131557   0.81986208  0.075743863  0.079332695  0.076536616 
 4446000   0.50122655  0.075159067   -0.3508243   0.40097794   0.80843618  0.075989534  0.072660418  0.076827249 
 4447000   0.49561364  0.078405909  -0.34829732   0.39508598   0.82014625  0.078095846  0.080525195  0.076596684 
 4448000   0.49830548   0.07315974  -0.35203403   0.39538682   0.79200615  0.073180373  0.071361429  0.074937418 
 4449000   0.49933618  0.074472781  -0.35157955   0.39738727   0.80112496  0.074963309  0.071706609  0.076748427 
 4450000   0.49971012  0.076659861  -0.34709102   0.40243667   0.81803113  0.077162474  0.078010301  0.074806806 
 4451000   0.50275728  0.076767734  -0.35115899   0.40293921   0.81911848  0.076912299  0.077762394   0.07562851 
 4452000   0.50143096  0.077634566  -0.34839098   0.40371785   0.82459646  0.076890928  0.076902602  0.079110169 
 4453000   0.49963782  0.079043916  -0.34980247   0.39961679   0.82813588   0.07808941  0.079561449   0.07948089 
 4454000   0.49862923  0.075913836  -0.35036551   0.39754094   0.80909098  0.075313062  0.074220524  0.078207922 
 4455000   0.49842582   0.07510077  -0.35359181   0.39400954   0.80115173  0.074990791  0.074355611  0.075955908 
 4456000     0.495024  0.075020391  -0.35153992   0.39095896   0.79766539  0.073847831   0.07525633  0.075957011 
 4457000   0.49605196  0.075434055  -0.34887911   0.39516163   0.80411065  0.075438554  0.074980266  0.075883345 
 4458000   0.49655609  0.075179642  -0.34988238   0.39491451   0.80248429   0.07505949  0.076551645  0.073927791 
 4459000   0.50202777  0.077247533   -0.3487472    0.4042568   0.82303719  0.079388858  0.077494603  0.074859136 
 4460000   0.50419879  0.076246903   -0.3493942   0.40686618   0.82022188  0.075177693  0.074873919  0.078689098 
 4461000   0.50292816   0.07898737  -0.34952207   0.40483245   0.83304499  0.077734512  0.078874966  0.080352633 
 4462000   0.50434497  0.075082327  -0.35395508   0.40252455   0.80956676  0.075782872  0.073650684  0.075813424 
 4463000   0.49720871   0.07609896  -0.34859566   0.39718011   0.80973377  0.074692905  0.074389508  0.079214467 
 4464000   0.49602765  0.075893854  -0.35324522   0.39075905   0.80220077   0.07362513  0.078088644  0.075967787 
 4465000   0.49839809  0.077036526  -0.35286513   0.39469463   0.81233109  0.077308028  0.076144213  0.077657337 
 4466000   0.50069858  0.079266665  -0.35112608   0.39988424   0.82961091   0.08044746  0.078465322  0.078887212 
 4467000   0.50231316  0.077459179  -0.34973778   0.40369428   0.82362207  0.077898554  0.076886639  0.077592344 
 4468000   0.50552822  0.077234214  -0.34929996   0.40895445   0.82766264    0.0763375  0.077230187  0.078134955 
 4469000   0.50558212  0.077331065  -0.34828355   0.41005171   0.82928495  0.074721589  0.079153429  0.078118177 
 4470000   0.50355237  0.073590198  -0.35361202   0.40167876   0.80063172  0.072346853  0.075469924  0.072953816 
 4471000   0.50032781  0.073314441  -0.35172086   0.39873333   0.79619133  0.072182937  0.073579412  0.074180974 
 4472000   0.49799618  0.076686371  -0.35006051   0.39689642   0.81263459  0.073003854  0.079059274  0.077995985 
 4473000    0.4973951  0.076303469  -0.35074585    0.3953095   0.80897185  0.074727588  0.077992393  0.076190426 
 4474000   0.49588391  0.074011419  -0.35083433   0.39295434   0.79419085  0.077402145  0.072017193  0.072614918 
 4475000   0.49861351  0.077332036  -0.35020829   0.39767459   0.81691309  0.076694055   0.07733977  0.077962283 
 4476000   0.49909518  0.074036875   -0.3531603   0.39544504   0.79681956  0.074657283  0.074008476  0.073444867 
 4477000   0.49755222  0.075708697  -0.34924771    0.3970433   0.80748123  0.077409558  0.075155019  0.074561514 
 4478000   0.49461807  0.076090865  -0.35164998   0.39024002   0.80274979  0.077081027  0.076821811  0.074369758 
 4479000   0.50029618  0.075705447  -0.35404569   0.39636105   0.80678136  0.073679218  0.076569493   0.07686763 
 4480000     0.505834  0.078918854  -0.35061265   0.40810042   0.83594151  0.078652137  0.080260222  0.077844203 
 4481000   0.50386125   0.07650646  -0.34878748    0.4069666   0.82172943   0.07693218  0.075745525  0.076841676 
 4482000   0.50113126  0.075387735  -0.35019936   0.40145995   0.81015785  0.077211799  0.076272921  0.072678485 
 4483000    0.4982499  0.075210454  -0.35132052   0.39601696   0.80375377  0.071885909  0.077105687  0.076639765 
 4484000   0.49843164    0.0773569  -0.34851737   0.39909271   0.81846601   0.07770206  0.076116905  0.078251735 
 4485000   0.50132577  0.076814273   -0.3515616   0.40038945   0.81682102  0.072218354  0.077975244  0.080249222 
 4486000   0.50017224  0.075781702  -0.35025387   0.39996698   0.81080069  0.074347093   0.07721249  0.075785522 
 4487000   0.50125671  0.074607841  -0.34887374   0.40297373   0.80744362  0.076013817  0.074187897   0.07362181 
 4488000   0.50619116  0.076608798  -0.34861728   0.41063149   0.82594912  0.079026098  0.076410125  0.074390172 
 4489000   0.50737377  0.078147953  -0.35045218   0.41057042   0.83423224  0.078725946  0.079165714  0.076552199 
 4490000   0.50131657  0.075409009  -0.35020572   0.40173154   0.81054478  0.074461866  0.077238668  0.074526492 
 4491000   0.49964017  0.076834982  -0.34874448   0.40067831   0.81722215  0.073791744  0.078509581  0.078203621 
 4492000   0.49979812  0.079038854  -0.34839372   0.40126597   0.82975761  0.081738165  0.077655655   0.07772274 
 4493000   0.50051757  0.078115635  -0.34997012   0.40076869    0.8242553  0.077630926  0.078731706  0.077984273 
 4494000   0.50783834  0.078345729  -0.34568225   0.41603718   0.84077119  0.074752794  0.081496667  0.078787726 
 4495000   0.50381319  0.078243427  -0.34738294   0.40829906   0.83247847  0.078226878  0.076159086  0.080344316 
 4496000    0.5001785  0.075472627  -0.34837697   0.40185327    0.8110114  0.072820968  0.076325886  0.077271027 
 4497000   0.50213426  0.076709053  -0.35049371   0.40267003   0.81853117  0.080070013  0.075246942  0.074810205 
 4498000   0.49986116  0.078658548  -0.35029578   0.39945847   0.82588837  0.075186373  0.080507319  0.080281953 
 4499000   0.49653398   0.07867131  -0.34531227   0.39945147   0.82595055  0.078700156  0.080848011  0.076465764 
 4500000   0.50163097  0.075878162  -0.35080269   0.40160613   0.81296278  0.074808958  0.075560165  0.077265363 
 4501000   0.50501592  0.078016253  -0.34767064   0.40981536    0.8327632  0.079888341  0.075352287   0.07880813 
 4502000    0.5024893  0.075984748  -0.34627698   0.40741928   0.81935376  0.075343755  0.077597874  0.075012613 
 4503000   0.50421287  0.077803125  -0.34890311   0.40737838   0.82917078  0.077011273  0.077569269  0.078828833 
 4504000   0.49819094  0.076398496  -0.34834853   0.39890051   0.81307803  0.075316272  0.078025498  0.075853717 
 4505000   0.49990681  0.076496352  -0.35206522    0.3977575   0.81246553  0.074907323  0.077651848  0.076929886 
 4506000   0.49763982  0.073619816  -0.35195445   0.39446795   0.79358148  0.073545355  0.075506631  0.071807463 
 4507000   0.49729578  0.076813753   -0.3489933   0.39691308   0.81334183   0.07646032  0.074592341  0.079388596 
 4508000   0.50499339  0.074554427  -0.34927537   0.40817684   0.81235715  0.076493065  0.072455723  0.074714492 
 4509000    0.4995885  0.076168524  -0.34753018    0.4018151   0.81474589  0.077681761  0.075503149  0.075320663 
 4510000   0.50298952  0.076517096  -0.35086505    0.4035815   0.81840199   0.07612876  0.077384976  0.076037552 
 4511000   0.50261358  0.073962468  -0.35324413   0.40063855   0.80160969  0.075734463  0.073983348  0.072169592 
 4512000   0.49890989  0.075626254  -0.34828838   0.40003903   0.81003002  0.075190768  0.072966921  0.078721074 
 4513000   0.49605199  0.075063884  -0.35316589   0.39087489   0.79781711  0.075533086   0.07421537  0.075443196 
 4514000   0.49876912  0.075737614  -0.35064865   0.39746762   0.80806232  0.078984673  0.071692123  0.076536046 
 4515000   0.49466769  0.074695083  -0.34748265   0.39448178   0.79942464  0.076999164    0.0755135  0.071572585 
 4516000   0.50123364  0.078547467  -0.35070746   0.40110541    0.8269331  0.080426596  0.077419201  0.077796602 
 4517000    0.5016405  0.076169612  -0.34682441   0.40559872    0.8185354  0.074448939  0.075585419  0.078474478 
 4518000   0.50299203  0.075788348  -0.35392413   0.40052619   0.81139593  0.074912285  0.076632951  0.075819808 
 4519000   0.50347997  0.080353112  -0.34776803   0.40741416   0.84303076  0.083122099   0.08012104  0.077816198 
 4520000   0.50227674  0.077491077  -0.34893278   0.40444466   0.82454538  0.076370866   0.07713912  0.078963246 
 4521000   0.49774915  0.076778465  -0.34739528   0.39919112   0.81542856   0.07637709  0.076782586  0.077175717 
 4522000   0.49586593  0.078102173  -0.34968883   0.39407287    0.8174865  0.077942015  0.077960615  0.078403889 
 4523000   0.49709016    0.0738055  -0.35155423   0.39404373    0.7941639    0.0741882  0.076080934  0.071147365 
 4524000   0.49816634  0.077301165  -0.35162558   0.39558656    0.8146577  0.075365276  0.078251003  0.078287215 
 4525000   0.50002063  0.075793681  -0.35027473   0.39971872   0.81061737  0.076763481  0.076770866  0.073846698 
 4526000    0.5026456  0.076918676  -0.35009779   0.40383291   0.82083047  0.075889927  0.077736183  0.077129918 
 4527000   0.50353624  0.076644946  -0.35168884   0.40357775   0.81909135   0.07901181  0.075756539  0.075166489 
 4528000   0.49939851  0.075148989  -0.35002227   0.39903805   0.80644165  0.075473552  0.076598246  0.073375171 
 4529000    0.5028519  0.075571498    -0.351219   0.40302113   0.81271527  0.076583049   0.07342805  0.076703395 
 4530000    0.4991921  0.076325189  -0.34952903   0.39922168   0.81300179  0.077092867  0.076600173  0.075282527 
 4531000   0.49627814  0.074101723  -0.35145419    0.3929258   0.79465188   0.07312834  0.074007589  0.075169238 
 4532000   0.49903776  0.075757273  -0.35208827   0.39643094   0.80713222  0.076990247  0.076061694  0.074219878 
 4533000   0.49959755  0.076237911  -0.35078728   0.39857158   0.81187853  0.078348842  0.076321252   0.07404364 
 4534000   0.49582338   0.07565149  -0.34957087   0.39412702   0.80425482   0.07696125  0.074387487  0.075605733 
 4535000    0.4988748  0.074901009   -0.3503773   0.39789748   0.80395672  0.073826531  0.076589389  0.074287108 
 4536000   0.50092381  0.076196547  -0.34943191   0.40191624   0.81499894  0.075391111  0.075954287  0.077244242 
 4537000   0.50106589  0.075233357  -0.35094196   0.40061929   0.80848027  0.074678032  0.076236103  0.074785937 
 4538000   0.50086285  0.076917441  -0.35191002   0.39934669   0.81633756  0.075016329  0.077872611  0.077863382 
 4539000   0.49843239  0.072625624  -0.35099283   0.39661837    0.7903421  0.075001363  0.071831089  0.071044419 
 4540000    0.4994273  0.074859956  -0.34999377   0.39910972   0.80494639  0.076048934  0.075535358  0.072995577 
 4541000   0.50126737  0.078621396  -0.34740179   0.40446167   0.83069015  0.077634843  0.078223316  0.080006028 
 4542000   0.50555208   0.07981911  -0.34976574   0.40852446   0.84124608  0.078602565   0.08107686  0.079777903 
 4543000   0.50083089   0.07636862  -0.34924711   0.40196167   0.81597722  0.078435474  0.075787978  0.074882408 
 4544000   0.49961944  0.076754594  -0.35038941   0.39900228   0.81511031  0.077797692  0.078064393  0.074401696 
 4545000   0.49773025  0.077040002  -0.34751931   0.39903873   0.81669404  0.077643498  0.073858777  0.079617731 
 4546000   0.50174362  0.076615707  -0.34869207   0.40388574   0.81924082    0.0779515  0.073893685  0.078001936 
 4547000   0.50346841    0.0746348  -0.35026792   0.40489694   0.80951298  0.075060855  0.077170575   0.07167297 
 4548000   0.49759108  0.076206704  -0.34983098   0.39651832   0.80965609  0.075326188  0.079686201  0.073607722 
 4549000   0.49458723  0.073219879  -0.35110703   0.39073672   0.78768207  0.073367609  0.074078279   0.07221375 
 4550000   0.49712546  0.075496549  -0.35144994   0.39420096   0.80348878  0.075946236  0.074133858  0.076409552 
 4551000   0.50468532  0.075940309  -0.35318109   0.40380904    0.8155026  0.077352948  0.075085986  0.075381992 
 4552000   0.50124184   0.08091517   -0.3483183   0.40350686   0.84217053  0.080431946  0.082341725  0.079971838 
 4553000   0.50277968  0.078150566  -0.35113848   0.40299333   0.82666931  0.079837673  0.076851701  0.077762323 
 4554000   0.50764042  0.077906691  -0.35115695   0.41026561   0.83261948  0.079452904  0.078368866  0.075898303 
 4555000   0.50093632  0.076204503  -0.35055204   0.40081487   0.81394071  0.077232517  0.075354132  0.076026858 
 4556000   0.50068011  0.075049466  -0.35181669   0.39916593   0.80602998  0.073514482  0.073072078  0.078561837 
 4557000   0.49874004   0.07359092  -0.35356421   0.39450845   0.79346532  0.073140871  0.075380742  0.072251146 
 4558000    0.4977303  0.075193509   -0.3494331   0.39712503   0.80476998  0.074613711  0.072939171  0.078027645 
 4559000   0.50123691  0.077637759  -0.34847699   0.40334078   0.82423669  0.074396376  0.077975669  0.080541234 
 4560000   0.50270663  0.080223148  -0.34873105   0.40529119   0.84020322  0.078951172  0.078762127  0.082956146 
 4561000   0.49972297  0.076655687  -0.34904748    0.4004995   0.81607133  0.078543367   0.07535943  0.076064265 
 4562000   0.49928238  0.076236936  -0.34978788   0.39909824   0.81239991  0.075797755  0.078544929  0.074368123 
 4563000   0.49876276  0.074515705  -0.34835025   0.39975647   0.80372686  0.074338989  0.076453788  0.072754338 
 4564000   0.49887141  0.074469914  -0.35096224   0.39730746   0.80102961  0.073822999  0.076113051  0.073473693 
 4565000     0.497537  0.077280215  -0.34967642   0.39659176   0.81554934  0.079003912  0.076235937  0.076600798 
 4566000   0.50037128   0.07668789  -0.35262774   0.39789165   0.81363806  0.078649823  0.076216794  0.075197052 
 4567000   0.49873521  0.077012089  -0.35078566   0.39727975   0.81478373   0.07732474   0.07779616  0.075915366 
 4568000   0.50340589  0.078815188  -0.34896213   0.40610896   0.83338804  0.076510994  0.080119201  0.079815369 
 4569000    0.5034684  0.079455848  -0.34846337   0.40670147   0.83745375  0.082256946  0.077839283  0.078271314 
 4570000   0.50285203  0.075471383  -0.35146344   0.40277689   0.81192827  0.076136814  0.077466052  0.072811282 
 4571000   0.50216858  0.078100373  -0.34727538   0.40593983   0.82934371  0.078141923  0.079417213  0.076741983 
 4572000   0.50567654  0.076298712  -0.35223694   0.40623994   0.81987651  0.076339481  0.075813418  0.076743237 
 4573000   0.49676728  0.076324685  -0.34689815   0.39821552   0.81199289  0.078194864  0.073805945  0.076973246 
 4574000   0.49850754  0.075050246  -0.34822761   0.39949631    0.8063646  0.073499481  0.076861073  0.074790183 
 4575000   0.49762379  0.075347375  -0.34795673   0.39844164   0.80692075  0.075002656  0.076083297  0.074956171 
 4576000   0.50087066  0.076714984  -0.35158305   0.39968537   0.81557867  0.076246293  0.076140315  0.077758346 
 4577000   0.50433747  0.075173342  -0.35316303   0.40330536   0.81084098   0.07576377  0.074916158  0.074840099 
 4578000   0.50392041  0.078941329  -0.34984594   0.40599689   0.83395982  0.079980999  0.075315797  0.081527189 
 4579000   0.50685258  0.076421889  -0.35167387   0.40856699   0.82287134  0.077924584  0.076014578  0.075326505 
 4580000   0.50167617  0.077644005  -0.34990706   0.40256957   0.82349935  0.079294038  0.078418252  0.075219725 
 4581000   0.50026453  0.075499527  -0.34970088   0.40065841   0.80996237  0.074537879  0.077951709  0.074008992 
 4582000    0.5012041  0.075970267  -0.35014516   0.40162341   0.81347939  0.075004067  0.075575362  0.077331372 
 4583000   0.49622451  0.074975432  -0.35272503   0.39157452   0.79803722   0.07483864  0.074875584  0.075212073 
 4584000   0.49679529   0.07535949  -0.35016355   0.39499212    0.8035369  0.070926722  0.077411478  0.077740269 
 4585000   0.50077764  0.076834421  -0.34936558   0.40176332   0.81830412  0.078840167  0.075588501  0.076074596 
 4586000   0.50515995  0.076995825  -0.34741579   0.41028625   0.82770207  0.075913563  0.079042104   0.07603181 
 4587000   0.50480581  0.077967795  -0.34935556   0.40781529   0.83050042   0.07811652  0.078314656  0.077472208 
 4588000    0.4997503  0.077465372  -0.34712497     0.402463   0.82242436  0.076874056  0.078745307  0.076776753 
 4589000   0.49975033  0.078037345   -0.3483537   0.40123431   0.82429649  0.076350349  0.077873322  0.079888365 
 4590000   0.49584974  0.077237829  -0.34798845   0.39574897   0.81447676  0.076901742  0.078148465  0.076663281 
 4591000    0.4919329  0.072627278   -0.3519874   0.38587505   0.77960775  0.072608102  0.076079303  0.069194428 
 4592000   0.49956984  0.076418382  -0.34904001   0.40027728   0.81456262  0.075739201  0.077656803  0.075859143 
 4593000   0.50182758  0.078045031  -0.34867101   0.40403272   0.82713657  0.078321076  0.078400848  0.077413168 
 4594000   0.50129144    0.0771679  -0.35210933   0.39979024   0.81813892  0.078898813  0.074607976   0.07799691 
 4595000   0.49989139  0.075520324  -0.34890176   0.40089782   0.81031454   0.07366305  0.076006412  0.076891512 
 4596000   0.50170387   0.07755711   -0.3512676   0.40125058   0.82170927  0.075480169  0.078227264  0.078963896 
 4597000   0.50489167  0.077738116  -0.34890453    0.4083951   0.82983508  0.077070031  0.075577893  0.080566424 
 4598000   0.50559569  0.078117737  -0.34992173   0.40843389    0.8319319  0.078033079  0.077869474  0.078450658 
 4599000   0.50316842  0.078607066  -0.34940765   0.40530724   0.83145804  0.080226028  0.078017305  0.077577865 
 4600000   0.50022226  0.077474195  -0.35173361   0.39856226   0.81857145  0.075840467   0.08015756  0.076424556 
 4601000   0.49522943  0.074603785  -0.35616344   0.38664356   0.79109145  0.074542155  0.073239147  0.076030051 
 4602000   0.49565657  0.075764748  -0.35125986   0.39218781   0.80292961  0.074901073  0.076081112  0.076312059 
 4603000   0.50057286  0.074766271   -0.3514046   0.39941714   0.80474592  0.075570272  0.073179791   0.07554875 
 4604000    0.4984417  0.079581694  -0.34737765   0.40024753   0.83168206  0.075456293  0.083054595  0.080234194 
 4605000   0.50386508  0.075995708  -0.35142609   0.40433375   0.81632764  0.076311194   0.07521879  0.076457138 
 4606000   0.50163656  0.076493636  -0.35040051    0.4020167      0.81671  0.076746826   0.07625093  0.076483152 
 4607000   0.50013748  0.077751843  -0.34630992   0.40385879   0.82537318  0.076739376  0.078509405  0.078006748 
 4608000    0.5035676  0.078341322  -0.35116124   0.40415239   0.82886252    0.0769566   0.07902976  0.079037607 
 4609000   0.50786738  0.080038362  -0.34862303   0.41313996   0.84705022  0.080456635  0.079439704  0.080218748 
 4610000   0.50386617    0.0766333  -0.34996661   0.40579485   0.82124532  0.076072458  0.078164428  0.075663013 
 4611000   0.50184025  0.079036613  -0.35015667   0.40256606   0.83104556  0.081986113  0.079120368  0.076003358 
 4612000   0.49700412  0.077783106  -0.34914071   0.39632819   0.81801208  0.077412306  0.079863762  0.076073252 
 4613000   0.49781076  0.075612805  -0.34747934   0.39919946   0.80911754  0.077501415  0.075161378  0.074175622 
 4614000   0.49532614  0.073632211  -0.35091905   0.39203301   0.79121373  0.071756523  0.074958675  0.074181435 
 4615000   0.49804743  0.076146866  -0.34999332   0.39704047   0.80985384  0.076657303   0.07727331  0.074509986 
 4616000   0.49563526  0.076134386  -0.35047347   0.39294225   0.80568796  0.076754706  0.076649987  0.074998465 
 4617000   0.49797099  0.076239213  -0.35062325    0.3962959    0.8096099  0.075885246  0.076313324  0.076519069 
 4618000   0.49944439  0.077102817  -0.35053747   0.39859165    0.8165875  0.076679976  0.077838441  0.076790035 
 4619000   0.50406223  0.078659816  -0.35154857   0.40450697   0.83094374  0.077208238  0.079491477  0.079279735 
 4620000   0.49993714  0.075336497  -0.35150882    0.3983594   0.80677953  0.075992253  0.073809584  0.076207654 
 4621000   0.50006803  0.078481537  -0.34943959   0.40062496   0.82609523   0.07723324  0.079983457  0.078227914 
 4622000   0.49675089  0.075373514  -0.34889019   0.39619889    0.8048197  0.076777577  0.075190137  0.074152828 
 4623000   0.49714155  0.075263157  -0.35085399   0.39482105   0.80284358  0.077284378  0.074193468  0.074311626 
 4624000   0.49268674    0.0756608  -0.35070101   0.38829215   0.79847042  0.077159849  0.073534104  0.076288447 
 4625000   0.49592719  0.075321641   -0.3506597    0.3931939   0.80153349  0.076232146  0.074680946  0.075051829 
 4626000   0.49808029  0.075410594  -0.35059797   0.39648511   0.80530694  0.073330396  0.075851344  0.077050043 
 4627000   0.49886088  0.075756835  -0.34921801    0.3990359    0.8097348  0.075904263  0.075972465  0.075393777 
 4628000   0.49991724  0.075661618  -0.35058768   0.39925069   0.80943339  0.076259007  0.076035009  0.074690839 
 4629000   0.50108528  0.079998351    -0.348727   0.40286334   0.83655668  0.079094056  0.080801691  0.080099307 
 4630000   0.50470795  0.077401801  -0.34901196   0.40801211   0.82762883  0.079819586  0.075247293  0.077138524 
 4631000   0.50295431  0.078168501  -0.34520161   0.40919213   0.83296534  0.075681972  0.079188422  0.079635107 
 4632000   0.50160092  0.075401383  -0.35070157    0.4016622    0.8104341  0.074178302  0.073948241  0.078077605 
 4633000   0.49803608  0.075755398  -0.34699821   0.40001855   0.81070967  0.076860588  0.072822486  0.077583121 
 4634000   0.50093731  0.077721304  -0.34894356   0.40242484   0.82377367  0.078841373  0.077158864  0.077163674 
 4635000   0.50285333  0.078588567  -0.35155201   0.40269027   0.82874078   0.07796315  0.081503721  0.076298832 
 4636000   0.50087688  0.075491019  -0.34633963   0.40493813   0.81419597  0.074961602   0.07632006  0.075191395 
 4637000   0.49739654  0.075836062  -0.35060961    0.3954479   0.80657632  0.076896198  0.074515848  0.076096141 
 4638000   0.49913687  0.076844921  -0.35295393   0.39571394   0.81231166  0.076658002  0.077000113  0.076876647 
 4639000   0.49467573  0.074714468  -0.34943359    0.3925429   0.79759084  0.075472808  0.074007039  0.074663555 
 4640000   0.49778293   0.07557988  -0.35014168   0.39649539   0.80623498  0.076029658  0.075443547  0.075266437 
 4641000   0.49643503  0.077389453  -0.34964226   0.39497305   0.81452283  0.075107044  0.076721579  0.080339735 
 4642000   0.49556748    0.0783832  -0.34938101   0.39393303   0.81887019  0.077720045  0.078721977  0.078707578 
 4643000   0.49780416  0.076485973  -0.34927748   0.39739142   0.81204318  0.076617662  0.077291211  0.075549046 
 4644000   0.49846098   0.07419429  -0.35188051   0.39577358   0.79800149  0.076257541  0.071600358   0.07472497 
 4645000    0.5017598  0.077250921  -0.34954879   0.40305328   0.82185204  0.079089332  0.074045635  0.078617797 
 4646000   0.50408732  0.077129077  -0.34891702   0.40717614   0.82531435  0.077169374  0.076938966  0.077278891 
 4647000   0.50355885  0.076476385  -0.34918197   0.40611854   0.82071833  0.077184959  0.076708541  0.075535656 
 4648000   0.49747172  0.075291255  -0.35094608   0.39522418   0.80339904  0.075354136  0.075528513  0.074991117 
 4649000   0.49972131  0.074711396  -0.35333638    0.3962081   0.80123939  0.076606471  0.073524444  0.074003272 
 4650000   0.49982486  0.076878045   -0.3514936   0.39820621    0.8149835  0.077208566  0.074108042  0.079317528 
 4651000    0.5000778  0.075986971  -0.35168144   0.39839775   0.81034429   0.07622221  0.077703501  0.074035203 
 4652000   0.50010287  0.076426765  -0.35058778   0.39952902    0.8138598  0.077549532  0.076240358  0.075490404 
 4653000   0.50278055  0.077326615  -0.34919727   0.40493585   0.82414496  0.078716222  0.077804359  0.075459262 
 4654000   0.50234161  0.077799565  -0.34624458   0.40723016   0.82900327  0.074307955  0.081539669  0.077551071 
 4655000   0.50272688  0.078270965  -0.34645382   0.40759879   0.83192749  0.080414655  0.079263005  0.075135235 
 4656000   0.50094103  0.075983078  -0.34845831   0.40291567    0.8148411  0.074759784   0.07430369  0.078885761 
 4657000   0.50427411  0.078082213  -0.34965865   0.40671469   0.83002011  0.079124634  0.077365342  0.077756663 
 4658000   0.50042181  0.075624157  -0.34749733   0.40309785   0.81307747   0.07425954   0.07632798  0.076284953 
 4659000   0.50159195  0.075772591  -0.34928922   0.40306109   0.81384541  0.077482602  0.074695935  0.075139237 
 4660000   0.50354954  0.074388926  -0.35283826   0.40244829   0.80573137  0.073610053  0.075174142  0.074382583 
 4661000   0.49938613  0.074108543  -0.35206938   0.39697236   0.79873542  0.074203382  0.072838265  0.075283981 
 4662000    0.4976615  0.080028028  -0.34558861   0.40086633   0.83472056  0.080748378  0.081079494  0.078256213 
 4663000   0.49891232  0.076433533  -0.35014421   0.39818686   0.81255433  0.075508159  0.077701229   0.07609121 
 4664000   0.50021758   0.07707181  -0.34957685   0.40071201   0.81853976   0.07652961  0.078119549  0.076566269 
 4665000     0.494806  0.076112116  -0.34945326   0.39271862    0.8053436  0.075839134   0.07616296  0.076334253 
 4666000   0.49386026  0.073749184    -0.352332   0.38842134   0.78823621  0.074198356  0.073424873  0.073624322 
 4667000   0.49577944  0.077170015  -0.35332397     0.390308   0.80866815  0.077331211  0.076644172  0.077534662 
 4668000   0.50499174  0.077223206  -0.34928156   0.40816817   0.82681668   0.07669049  0.076931569  0.078047559 
 4669000   0.49918614  0.077099364  -0.35050652   0.39823525   0.81621237  0.076831849  0.079838948  0.074627295 
 4670000   0.49811184  0.076248405  -0.34964646   0.39748394   0.81084778  0.077228399  0.074704897   0.07681192 
 4671000   0.50018243  0.076615969   -0.3504264   0.39980973   0.81516624  0.074362183  0.076624253  0.078861471 
 4672000    0.5001257  0.076871806  -0.34906069   0.40109034   0.81783381  0.074605185  0.080552079  0.075458155 
 4673000   0.49420154  0.076179196  -0.34765819   0.39360707   0.80659571  0.073799223  0.078784083  0.075954283 
 4674000   0.49751608  0.075397817  -0.34988749   0.39634932   0.80510188  0.074200311  0.076585209  0.075407931 
 4675000   0.49665576  0.074034992  -0.35064738   0.39429902   0.79566333  0.076999384  0.073417038  0.071688555 
 4676000   0.50051048  0.077408254  -0.35031622   0.40041196   0.82006366  0.076131521  0.077056713  0.079036527 
 4677000   0.50299967   0.07830205  -0.35161717   0.40284461   0.82734184  0.077890614  0.080076921  0.076938615 
 4678000   0.50093571  0.079192383  -0.34938603   0.40197996   0.83130392  0.078341741  0.078994823  0.080240584 
 4679000    0.5019015  0.075130788  -0.34993403   0.40288058   0.81018551  0.074170291  0.075805589  0.075416486 
 4680000   0.49691641  0.073933544  -0.34819916   0.39713819   0.79795252  0.073993962  0.075879887  0.071926783 
 4681000   0.48876332   0.07420282   -0.3499992   0.38310913   0.78538329  0.074434611  0.072030999  0.076142849 
 4682000   0.49711524  0.076726914  -0.34705711   0.39857846   0.81453643  0.074023496  0.078273998  0.077883248 
 4683000   0.49919609  0.077144915  -0.34951433   0.39924237   0.81746644  0.077093051  0.076998626  0.077343067 
 4684000   0.49634172  0.079038547  -0.34864633   0.39582903     0.824319  0.078367568  0.077239644  0.081508428 
 4685000   0.49941028    0.0772556  -0.34853937    0.4005386   0.81936272  0.078636306  0.074928348  0.078202145 
 4686000   0.49776004  0.075816565   -0.3479274   0.39867533   0.80969805  0.077406783  0.076110432  0.073932482 
 4687000   0.50053795  0.075707819  -0.34929547   0.40147391   0.81190708  0.078506241  0.075302485   0.07331473 
 4688000   0.50036346  0.076926336  -0.35121319   0.39929448   0.81633357  0.076347848   0.07610766  0.078323499 
 4689000   0.49626081  0.077850754  -0.35070467   0.39364933   0.81569995  0.077284776  0.077471751  0.078795734 
 4690000   0.49817822   0.07868392  -0.34650781   0.40072216    0.8272896  0.082036959  0.076908152  0.077106649 
 4691000   0.49966251  0.075991558  -0.34988711   0.39956918   0.81154058  0.076369714  0.075244399  0.076360561 
 4692000   0.50002693   0.07369608  -0.35015607   0.39984683    0.7993738  0.071393597  0.074375124   0.07531952 
 4693000    0.4961663  0.078826871  -0.34772133    0.3964909   0.82383333  0.080727092  0.078138636  0.077614884 
 4694000   0.49801584  0.077677888  -0.35092828   0.39605812   0.81717159  0.075184174  0.077967814  0.079881677 
[...]
 4841000   0.49814083  0.078118487  -0.34479335   0.40238053   0.82588261  0.075627281  0.080318743  0.078409436 
 4842000   0.49858077  0.079138101  -0.34981344   0.39802032   0.82705001  0.080252359  0.078177649  0.078984294 
 4843000   0.50017041  0.077920037  -0.34966484   0.40055326   0.82297948  0.078353958  0.077634417  0.077771735 
 4844000     0.502047  0.077136015  -0.35152681   0.40150604   0.81968186  0.079173803  0.077253823   0.07498042 
 4845000   0.50013685  0.077281534  -0.34941254   0.40075522   0.81971994  0.077422932  0.075406182  0.079015488 
 4846000   0.50120814  0.075318393  -0.34993514   0.40183948   0.81016146  0.075155482  0.075580929  0.075218768 
 4847000   0.50294145  0.078451027  -0.35068844   0.40368601   0.82899088  0.077776292  0.080651776  0.076925013 
 4848000   0.50416074  0.077337222  -0.34968307   0.40652023   0.82578685  0.080070037  0.076343045  0.075598585 
 4849000   0.50205391   0.07844249  -0.34945582   0.40358739   0.82884598  0.080110946  0.077783446  0.077433079 
 4850000   0.50119402  0.078049105  -0.34652719   0.40522625   0.82835219  0.077681972  0.077098394   0.07936695 
 4851000   0.49912208  0.075699727  -0.35199649   0.39664919   0.80703849  0.075127448  0.073910281  0.078061452 
 4852000    0.4962719  0.076277954  -0.35219448   0.39217615   0.80570018  0.075996151  0.078107228  0.074730484 
 4853000   0.49886635  0.075987186  -0.34932248   0.39893963   0.81088733  0.076638793  0.075521243  0.075801521 
 4854000   0.50624459  0.077148729  -0.35009398   0.40923493   0.82747968  0.076415472  0.077080096   0.07795062 
 4855000   0.50249562  0.074629144  -0.35010434    0.4036014   0.80818678  0.076808487  0.072581854  0.074497092 
 4856000    0.5013418  0.079052845  -0.34754098   0.40443412   0.83300161  0.081124615  0.077125455  0.078908465 
 4857000   0.50317845  0.075231496  -0.35366458   0.40106537   0.80891626  0.078041965  0.073601085  0.074051436 
 4858000   0.50344299  0.075881041  -0.35087504   0.40425168   0.81562393  0.073203074  0.077049699   0.07739035 
 4859000   0.50242055  0.074401387  -0.35092405    0.4026691   0.80601974  0.074146936   0.07267858  0.076378647 
 4860000   0.50048133  0.076387112  -0.34703076   0.40365369   0.81776951  0.077105278  0.076279025  0.075777033 
 4861000   0.50509598  0.077343022  -0.34912296   0.40848313    0.8277812  0.076293502  0.075040759  0.080694804 
 4862000    0.5004935    0.0754943  -0.35188597   0.39881675   0.80809238  0.075711696   0.07565822  0.075112985 
 4863000   0.49830804  0.076614972  -0.34741187   0.40001282   0.81536392  0.078329836  0.077385668  0.074129413 
 4864000   0.50004295   0.07593719  -0.35121814   0.39880879   0.81048545  0.076206018  0.075679632   0.07592592 
 4865000    0.5017449  0.077308157  -0.34829787   0.40428185    0.8233909  0.074985996  0.076416176  0.080522298 
 4866000    0.4994128  0.076130804  -0.34865121   0.40043053   0.81315682  0.075698123  0.075785137  0.076909152 
 4867000   0.49934151  0.075015723  -0.35103432    0.3979405   0.80462163  0.074358764   0.07464134  0.076047065 
 4868000   0.49717413  0.076007694  -0.35096806   0.39475585   0.80681472  0.075314968  0.077599026  0.075109088 
 4869000   0.50006913  0.073415103   -0.3540264   0.39603979   0.79404352   0.07292683  0.074331874  0.072986607 
 4870000   0.49669231  0.076409629  -0.35020048   0.39480072   0.80903861    0.0776976  0.075286625  0.076244663 
 4871000   0.49861854  0.075104081  -0.34989094   0.39799946    0.8051596  0.078437249  0.072813988  0.074061005 
 4872000   0.49676282  0.076089775  -0.34816759   0.39693939   0.80944325  0.078876009  0.075910692  0.073482625 
 4873000   0.50418566  0.078482179  -0.35077486   0.40546582   0.83093957  0.077521207  0.080352471  0.077572858 
 4874000   0.50101117  0.078107876  -0.35107886   0.40040032   0.82384487  0.078771594  0.079539521  0.076012514 
 4875000   0.49841547  0.078124396  -0.34810774   0.39947809   0.82301219  0.078235974  0.079735286  0.076401927 
 4876000   0.49344863  0.076268049  -0.34946256   0.39067338   0.80414372  0.076144437  0.073336609    0.0793231 
 4877000   0.49545756  0.074900118   -0.3492173   0.39393188   0.79998628  0.073642232  0.076409579  0.074648542 
 4878000   0.49714372  0.077152771  -0.34888699   0.39679131   0.81505797  0.074611551   0.07778786  0.079058902 
 4879000   0.50215757  0.078369405  -0.34930379    0.4038949   0.82875727  0.079456491  0.077470807  0.078180916 
 4880000    0.5020334  0.075437293  -0.35035282   0.40265963   0.81162621  0.075938778  0.074090377  0.076282724 
 4881000    0.5012863  0.078322556  -0.35069512   0.40119673   0.82580512   0.08105974  0.078550714  0.075357214 
 4882000   0.50370445  0.074939567  -0.35351206   0.40200684    0.8082751   0.07191203  0.077900738  0.075005933 
 4883000   0.50044307  0.074909353  -0.35081471   0.39981236   0.80591682    0.0742618  0.073182063  0.077284196 
 4884000   0.50132172  0.076028405  -0.35181602   0.40012895   0.81230011  0.074902798  0.077678292  0.075504124 
 4885000   0.49458904  0.077416334  -0.35085794   0.39098852   0.81068403  0.076244454  0.078937222  0.077067326 
 4886000   0.49367378  0.077005604  -0.34838927   0.39208438   0.80955321  0.073743031  0.080363562   0.07691022 
 4887000   0.49493134  0.074669567  -0.35117829    0.3911816   0.79598612  0.074461227  0.073936591  0.075610883 
 4888000   0.49795721  0.074916573  -0.34959887   0.39729961   0.80344321  0.073809821  0.075948801  0.074991098 
 4889000   0.49852619   0.07410684  -0.34901201   0.39873988    0.8004937   0.07280013   0.07572121  0.073799178 
 4890000   0.50247852   0.07656257  -0.35273555   0.40094455   0.81601156  0.074760915  0.077978987  0.076947808 
 4891000   0.50519726  0.078584442  -0.35264277   0.40511524   0.83114339  0.078178585  0.077536407  0.080038335 
 4892000   0.50484379  0.077876113  -0.34893642   0.40829141    0.8304795  0.077397436  0.078255642  0.077975261 
 4893000   0.50259651  0.078399925  -0.34644297    0.4074141   0.83244193  0.078773801  0.077911474    0.0785145 
 4894000   0.50099195  0.077836898  -0.34853995    0.4029104    0.8248859  0.076784518  0.078662991  0.078063186 
 4895000   0.50066968  0.075900538  -0.34925273   0.40171425   0.81319221  0.077507642  0.074788843   0.07540513 
 4896000   0.50043928  0.077215318  -0.35011753   0.40050386   0.81910961  0.077160375  0.075367167  0.079118412 
 4897000   0.50155688  0.076562619  -0.35188617   0.40041153   0.81547881  0.075784643  0.078418133  0.075485082 
 4898000   0.49343672  0.075924559  -0.34656116   0.39355691   0.80516509  0.074795397  0.077744088  0.075234193 
 4899000   0.49642806  0.077729869  -0.34716178   0.39744307   0.81883834  0.076390202  0.077815354   0.07898405 
 4900000   0.49918119  0.078573978  -0.35009106   0.39864328   0.82461471  0.078580837  0.078727438   0.07841366 
 4901000   0.50194835  0.075007279  -0.34918005   0.40370482   0.81034017  0.075652948   0.07367386  0.075695029 
 4902000   0.50400521   0.07903858  -0.34787977   0.40809024    0.8365804  0.078278506  0.081183321  0.077653914 
 4903000   0.50141075  0.077611686  -0.34954511   0.40253342   0.82328798  0.077593836  0.079653127  0.075588096 
 4904000   0.49974684  0.077047929  -0.34828505   0.40129773   0.81899601  0.076727752  0.076619993  0.077796041 
 4905000    0.4989418  0.077001962  -0.35007925   0.39829603   0.81574511  0.078113109  0.075213956  0.077678821 
 4906000    0.5001397  0.076866366  -0.34832282   0.40184922    0.8185632  0.078075024  0.077609924  0.074914151 
 4907000   0.50446979  0.076413395  -0.34874982   0.40791703   0.82217533  0.078429187  0.074880154  0.075930843 
 4908000     0.501712  0.074912987  -0.35166827    0.4008621   0.80698627  0.074161581  0.076262274  0.074315106 
 4909000   0.49909844  0.076561588  -0.35238599   0.39622424   0.81128593  0.076332672  0.076068231   0.07728386 
 4910000   0.49799061  0.077579263  -0.34806793   0.39888063   0.81945942  0.076969406  0.078786929  0.076981455 
 4911000    0.4994055  0.077180171  -0.34729433   0.40177647   0.82019167  0.077636046  0.078916094  0.074988372 
 4912000   0.50151755  0.077443427  -0.34914532    0.4030934   0.82293579  0.077907526  0.076691148  0.077731608 
 4913000   0.50035202  0.075399138   -0.3501575   0.40033301   0.80909273  0.075479213  0.074641777  0.076076425 
 4914000   0.49495596    0.0763689   -0.3501375   0.39225932    0.8062764  0.076718056  0.075280768  0.077107876 
 4915000   0.49938103  0.076662043  -0.34778537   0.40124873   0.81685502  0.076956739  0.075210104  0.077819287 
 4916000   0.49995048  0.075714191  -0.34952369   0.40036454   0.81083225  0.076404163  0.075362444  0.075375965 
 4917000   0.49723212  0.075386436  -0.35161016   0.39420073    0.8028916  0.074534159  0.074498296  0.077126853 
 4918000   0.50048278  0.076779808  -0.34808044    0.4026062   0.81885092  0.078586657  0.075849046   0.07590372 
 4919000   0.50300032  0.077767579  -0.34745753   0.40700522   0.82860492  0.077996965  0.077708674  0.077597099 
 4920000   0.50068082  0.075833284  -0.35008919   0.40089448   0.81200783  0.076188985  0.075495503  0.075815362 
 4921000   0.50052492  0.074984052  -0.35030741   0.40044243   0.80695186   0.07446087  0.076177804  0.074313482 
 4922000   0.50057067  0.076618884  -0.35082667   0.39999178    0.8153641  0.076005718  0.075165554  0.078685381 
 4923000   0.49887342  0.076166771  -0.35398518   0.39428753   0.80720881  0.076272134  0.076695322  0.075532857 
 4924000    0.5028544  0.077724352  -0.35108101   0.40316288   0.82452824  0.079682583  0.075721549  0.077768926 
 4925000   0.50485026  0.077550505  -0.34920777   0.40802975   0.82845264  0.078151293  0.077739112  0.076761108 
 4926000   0.50243895  0.076338466  -0.35169183    0.4019289   0.81578099  0.075013991  0.073920314  0.080081094 
 4927000   0.50137545   0.07729036  -0.34816883   0.40385674   0.82286931  0.079975194  0.076525278  0.075370607 
 4928000   0.50213351   0.07719164  -0.35070577   0.40245683   0.82093421  0.077190267  0.076824835  0.077559818 
 4929000   0.49921179  0.077936426  -0.35045662   0.39832363    0.8208387  0.079425921  0.077582234  0.076801122 
 4930000   0.50017676  0.078790426  -0.35133344   0.39889418   0.82603903  0.077430434  0.078548492  0.080392352 
 4931000   0.49888235  0.075879085  -0.34944348   0.39884263   0.81020428  0.074739042  0.075291684  0.077606528 
 4932000   0.49866775  0.075960784  -0.35087489   0.39708934    0.8088939  0.073593606  0.078215246    0.0760735 
 4933000   0.49809365  0.074344736   -0.3491503   0.39795282   0.80099634  0.075817888  0.072963583  0.074252738 
 4934000   0.50292172  0.079959898  -0.34967187   0.40467299   0.83815787  0.078504988   0.08167377  0.079700935 
 4935000   0.50473347  0.076815002   -0.3502817   0.40678066   0.82321618  0.077862475  0.077409141   0.07517339 
 4936000   0.50190075  0.077785696  -0.35109928    0.4017142   0.82341212  0.078021622  0.077794184  0.077541283 
 4937000   0.49959064  0.074987391  -0.35255983   0.39678865   0.80331619  0.074346751  0.074908771  0.075706652 
 4938000   0.49662976  0.076339911  -0.34939189    0.3955155   0.80937542  0.076643231  0.076984533  0.075391968 
 4939000    0.5012845  0.077329434  -0.35059503   0.40129412   0.82051852  0.075133022   0.07937802   0.07747726 
 4940000   0.50312529  0.075826793  -0.35325039   0.40139981   0.81247797  0.076572139  0.075968972  0.074939268 
 4941000   0.50374748  0.076310153  -0.34889923   0.40668421   0.82038281  0.074740829  0.079494504  0.074695127 
 4942000   0.50268603  0.077946805  -0.35007023   0.40392112   0.82649246  0.079527266  0.078041079  0.076272069 
 4943000   0.49783194  0.076924717  -0.34830286   0.39840771   0.81543803  0.075728808  0.076819278  0.078226066 
 4944000   0.49671834  0.076168111  -0.35223424   0.39280601   0.80573456  0.075464693  0.077406675  0.075632966 
 4945000   0.49840486  0.074768027  -0.34978568   0.39778423   0.80312253  0.074510521  0.075716687  0.074076873 
 4946000   0.49902997  0.076692642  -0.34910589   0.39940164   0.81517381  0.078283998   0.07612121  0.075672718 
 4947000   0.50070057  0.077820313  -0.34926399   0.40174931    0.8236349  0.078179389  0.077683781  0.077597768 
 4948000   0.50244097    0.0778966  -0.34970736   0.40391641   0.82621557  0.078626284  0.075881884   0.07918163 
 4949000   0.50182995  0.074790097  -0.35070937   0.40199791   0.80745586  0.075765446   0.07357893  0.075025915 
 4950000    0.5046292  0.075446478  -0.34988466   0.40702129   0.81603766  0.075402671  0.075635171  0.075301593 
 4951000   0.50137143  0.075816083  -0.34971887   0.40230068   0.81332078  0.074825111  0.075416064  0.077207073 
 4952000   0.50332612  0.076413594  -0.35283406   0.40211738   0.81637675  0.077332402  0.075537814  0.076370566 
 4953000   0.50063675    0.0769362  -0.34978005   0.40113753    0.8182301  0.074695132   0.07721397  0.078899497 
 4954000   0.49675626  0.076150125  -0.34896816   0.39612897   0.80896001  0.074803563   0.07835893  0.075287881 
 4955000   0.49802219  0.074743142  -0.34890409   0.39809185   0.80329524  0.076614484  0.073668662  0.073946279 
 4956000   0.49928483  0.076346733  -0.35092814   0.39796166   0.81185857  0.077191115  0.076339499  0.075509586 
 4957000   0.49798386  0.076197822  -0.35122856   0.39570988    0.8087995  0.073432653  0.076897502  0.078263312 
 4958000   0.50158357  0.077280965  -0.35256356   0.39977418   0.81873581  0.076751773  0.078002962  0.077088159 
 4959000   0.49918509  0.076708685  -0.35214435   0.39659584   0.81245499   0.07734764  0.075211701  0.077566714 
 4960000    0.5004704  0.076342318  -0.35132355   0.39934451   0.81321748  0.075215194  0.077829946  0.075981813 
 4961000   0.49905634  0.072920467  -0.35249842   0.39604865   0.79137082  0.073331714  0.070144488    0.0752852 
 4962000   0.49827006  0.073801977  -0.35131349   0.39605423    0.7961553  0.073950273  0.075750495  0.071705164 
 4963000   0.50052709  0.076252283  -0.34787837   0.40287472   0.81625959   0.07907687  0.076584664  0.073095316 
 4964000   0.50372526  0.077768114  -0.34961297   0.40593714   0.82753975  0.078485382  0.077802933  0.077016028 
 4965000   0.50123127  0.078108901  -0.35128313   0.40052618   0.82397629  0.078271114  0.081113189  0.074942401 
 4966000   0.50332944  0.075585128   -0.3497942   0.40516222   0.81493024  0.075161278  0.074162499  0.077431606 
 4967000   0.50116553   0.07798533  -0.35021447   0.40149624   0.82427643  0.076744293  0.081214265  0.075997431 
 4968000   0.50277069  0.075237519  -0.35082913    0.4032892   0.81117275  0.077216915  0.073136957  0.075358686 
 4969000   0.49405438  0.075689386  -0.35148083   0.38956368   0.79989692  0.079104969  0.073030279  0.074932909 
 4970000   0.50018474   0.07431593  -0.35080013   0.39943946   0.80232681  0.074553396  0.073932691  0.074461702 
 4971000   0.49991597  0.076686634  -0.35042886   0.39940759   0.81514719  0.078911988  0.076094567  0.075053346 
 4972000   0.49812086  0.076346348  -0.34896954   0.39817439   0.81206921  0.076118154  0.078333897  0.074586995 
 4973000   0.50086163  0.075248117  -0.35197013   0.39928475   0.80722574  0.074213221  0.077610191  0.073920938 
 4974000   0.49820046  0.078441909  -0.34884935   0.39841399   0.82366942  0.079821394  0.078481523  0.077022808 
 4975000   0.49579405   0.07530198  -0.35198338   0.39167052   0.79990353  0.075798291   0.07455522  0.075552429 
 4976000   0.49655972  0.077078339  -0.35097564   0.39382671   0.81168985  0.076234034  0.078089715   0.07691127 
 4977000   0.49644676  0.076951021  -0.34963878   0.39499412   0.81216704  0.077770681  0.075444061  0.077638322 
 4978000   0.49997305  0.074291084  -0.35099133   0.39893074    0.8016834   0.07437893  0.074003796  0.074490527 
 4979000   0.49357905  0.077971632  -0.35209175    0.3882398   0.81094574  0.077714302  0.077688208  0.078512388 
 4980000   0.50431338  0.077661269  -0.35037165   0.40606059   0.82708396  0.078790247  0.079009457  0.075184102 
 4981000   0.50348668  0.077440418  -0.35079302   0.40439924   0.82422531  0.076149016  0.076719836  0.079452401 
 4982000   0.50025212  0.077281673  -0.34962088   0.40071977   0.81968525   0.07699248  0.077239779  0.077612761 
 4983000   0.50347443  0.077615118  -0.35050482   0.40466906   0.82544224  0.078513285  0.079737337  0.074594732 
 4984000   0.50019764  0.075461002  -0.34992042   0.40033853   0.80943363  0.076273815  0.075409646  0.074699544 
 4985000   0.49957258  0.076733767  -0.34833009    0.4009913   0.81698643  0.074294422  0.079507096  0.076399783 
 4986000   0.49384002  0.074770119  -0.34978425   0.39093875   0.79628838  0.074307244  0.074607901  0.075395212 
 4987000   0.50032366  0.076602415  -0.35172353   0.39872444   0.81400747  0.077125209  0.075582487   0.07709955 
 4988000   0.50408145  0.078732584  -0.35094059   0.40514378   0.83197504  0.078207809  0.079839882  0.078150062 
 4989000   0.50113519  0.078196961   -0.3472383   0.40442691   0.82835441  0.078449062  0.078199371  0.077942451 
 4990000   0.50167549  0.078538153   -0.3457207   0.40675491   0.83253211   0.07814534  0.077428977  0.080040141 
 4991000   0.50133224  0.077388117  -0.34940588   0.40255488   0.82209741  0.075661828  0.079413554   0.07708897 
 4992000   0.50172274  0.077069866  -0.34891708   0.40362941   0.82144661   0.07944369  0.075706575  0.076059332 
 4993000   0.50048961  0.077663205  -0.35080867    0.3998882   0.82092207  0.075939005  0.077233457  0.079817152 
 4994000   0.49635183  0.075736851  -0.35047734   0.39401318   0.80460375  0.077301738  0.074077395   0.07583142 
 4995000   0.49712721  0.075262077   -0.3523739   0.39327963   0.80129631  0.074942038  0.075818106  0.075026086 
 4996000    0.4945686  0.073887255  -0.35086107   0.39095474   0.79151812  0.073832162  0.074718333  0.073111269 
 4997000    0.4990369  0.078903544  -0.34889299   0.39962493   0.82738302  0.080552426  0.076247045  0.079911162 
 4998000    0.5022414  0.074857101  -0.35165372    0.4016707    0.8074919  0.075205521  0.075485502   0.07388028 
 4999000   0.50122562  0.077432326  -0.34980778   0.40199305   0.82177526  0.076659852  0.080252034  0.075385091 
 5000000   0.49824129  0.075692903  -0.34918677    0.3981378   0.80849011   0.07480653  0.074830992  0.077441187 
Loop time of 3590.43 on 1 procs for 1000000 steps with 20000 atoms

Performance: 120319.809 tau/day, 278.518 timesteps/s
99.9% CPU use with 1 MPI tasks x 1 OpenMP threads

MPI task timing breakdown:
Section |  min time  |  avg time  |  max time  |%varavg| %total
---------------------------------------------------------------
Pair    | 2126.9     | 2126.9     | 2126.9     |   0.0 | 59.24
Neigh   | 1084.5     | 1084.5     | 1084.5     |   0.0 | 30.21
Comm    | 75.644     | 75.644     | 75.644     |   0.0 |  2.11
Output  | 25.13      | 25.13      | 25.13      |   0.0 |  0.70
Modify  | 241.73     | 241.73     | 241.73     |   0.0 |  6.73
Other   |            | 36.53      |            |       |  1.02

Nlocal:    20000 ave 20000 max 20000 min
Histogram: 1 0 0 0 0 0 0 0 0 0
Nghost:    8910 ave 8910 max 8910 min
Histogram: 1 0 0 0 0 0 0 0 0 0
Neighs:    172267 ave 172267 max 172267 min
Histogram: 1 0 0 0 0 0 0 0 0 0

Total # of neighbors = 172267
Ave neighs/atom = 8.61335
Neighbor list builds = 100000
Dangerous builds = 99889

write_restart 	out.restart.sys.final.${temp}
write_restart 	out.restart.sys.final.0.5
unfix intg
unfix ploadx
undump  trj
uncompute denprof
unfix   denprof

next    t
jump    SELF temperatureloop
variable t loop 10
variable  temp  equal 0.1+($t-1)*0.1
variable  temp  equal 0.1+(6-1)*0.1

#OUTPUT
# density profile
compute denprof all chunk/atom bin/1d x center ${xbin}
compute denprof all chunk/atom bin/1d x center 0.05
fix     denprof all ave/chunk 100 1000 500000 denprof density/number file out.profile.density.${temp}.data
fix     denprof all ave/chunk 100 1000 500000 denprof density/number file out.profile.density.0.6.data

#OUTPUT
log   log.lammps.${temp}
log   log.lammps.0.6
