thermo 1000
thermo_style custom step temp press pe etotal enthalpy pxx pyy pzz
dump 		trj all atom 500 out.sys_nvt.${temp}.lammpstrj
dump 		trj all atom 500 out.sys_nvt.0.4.lammpstrj
restart 100000 out.restart1.${temp} out.restart2.${temp}
restart 100000 out.restart1.0.4 out.restart2.${temp}
restart 100000 out.restart1.0.4 out.restart2.0.4

fix ploadx all balance 10000 1.05 shift x 20 1.05
fix intg all nvt temp ${temp} ${temp} ${tdump}
fix intg all nvt temp 0.4 ${temp} ${tdump}
fix intg all nvt temp 0.4 0.4 ${tdump}
fix intg all nvt temp 0.4 0.4 1
run ${Nrun}
run 1000000
Per MPI rank memory allocation (min/avg/max) = 12.56 | 12.56 | 12.56 Mbytes
Step Temp Press PotEng TotEng Enthalpy Pxx Pyy Pzz 
 3000000    0.3014657  0.019081853  -0.72098687  -0.26881094   -0.1653629  0.022888591  0.015659522  0.018697446 
 3001000   0.39925892  0.050843237  -0.66435869 -0.065500247    0.2101351  0.051415977   0.04861156  0.052502174 
 3002000   0.40034035  0.044166498  -0.61222302 -0.011742526   0.22769636  0.045725979  0.045360171  0.041413342 
 3003000   0.40160158  0.042845529   -0.5739259  0.028446359    0.2607239  0.044508258   0.04223974  0.041788588 
 3004000   0.40149863  0.043652242  -0.55342509  0.048792741    0.2854437   0.04431995  0.043341852  0.043294924 
 3005000   0.40364138  0.043684875  -0.54118039  0.064251406   0.30107928  0.044070587  0.043928153  0.043055886 
 3006000   0.40258046  0.043928063  -0.53473721  0.069103292   0.30724956  0.043374568  0.044666263   0.04374336 
 3007000   0.40207724  0.043040074  -0.52988674  0.073198962   0.30653119  0.043989915  0.042602194  0.042528114 
 3008000   0.40269207  0.042678052  -0.53091121  0.073096692    0.3044663  0.044056859  0.040476883  0.043500415 
 3009000   0.39850191  0.044248124  -0.53092701  0.066795965   0.30667737  0.043178609  0.045141926  0.044423837 
 3010000   0.39783473  0.046139075   -0.5279206  0.068801665   0.31893444  0.045044356  0.045708072  0.047664798 
 3011000   0.39713119  0.044175201  -0.52793664  0.067730361   0.30721643   0.04358992  0.045906004   0.04302968 
 3012000   0.39922271   0.04078832  -0.52580638  0.072997734   0.29412258  0.040919644  0.042055076  0.039390239 
 3013000   0.39707424  0.045156105  -0.52701631  0.068565266   0.31336909  0.045074984  0.043523321  0.046870012 
 3014000   0.40077638  0.042596917  -0.53008464  0.071049876   0.30197963  0.044711029  0.038631049  0.044448672 
 3015000   0.39987683  0.044149085  -0.53006002  0.069725225   0.30906971  0.044014243  0.042045761  0.046387251 
 3016000   0.40100538   0.04649985  -0.53296899  0.068508999   0.32059764  0.044632273  0.047462775    0.0474045 
 3017000   0.40539007  0.045606277  -0.53683769  0.071217009   0.31846134  0.044665088  0.044769436  0.047384307 
 3018000   0.40261692  0.047090813  -0.53379167  0.070103514   0.32539593   0.04772393  0.046030448   0.04751806 
 3019000   0.40262594  0.047398313  -0.53440488   0.06950383   0.32646329  0.044535615  0.048457646  0.049201677 
 3020000    0.3987862  0.043115011   -0.5306201  0.067529297   0.30126778  0.042450489  0.044546716  0.042347828 
 3021000   0.40247757  0.045948935  -0.52649943  0.077186733   0.32628871  0.047004037  0.045800213  0.045042554 
 3022000    0.3995769  0.044701335  -0.52084413  0.078491258   0.32082964  0.044296478  0.044332445  0.045475081 
 3023000   0.39836848  0.044180482   -0.5126036  0.084919248   0.32443395  0.043534868  0.043014359   0.04599222 
 3024000   0.39797256  0.046084126  -0.50309415  0.093834843   0.34366973  0.046309372  0.044805465  0.047137542 
 3025000   0.40237874  0.044950277  -0.50232664    0.1012113   0.34489927  0.047007304  0.043142872  0.044700655 
 3026000    0.4030098   0.04498327  -0.49504886   0.10943561   0.35330244  0.045449546     0.044547  0.044953263 
 3027000   0.40059583  0.044100461  -0.48811304   0.11275066   0.35183154   0.04297828  0.043672774  0.045650328 
 3028000   0.40161792  0.045093485  -0.48559286    0.1168039   0.36126824  0.044992118   0.04661053  0.043677807 
 3029000    0.3979153  0.045122588  -0.48126193   0.11558118    0.3602033  0.045321217  0.045150942  0.044895606 
 3030000   0.39724439  0.043407033  -0.48548494   0.11035186   0.34567348  0.044822657  0.041636896  0.043761548 
 3031000   0.39998281  0.045954758  -0.47990412   0.12004009   0.36917363  0.048920255  0.045896024  0.043047994 
 3032000   0.39778329    0.0451302  -0.48027895   0.11636616   0.36102954  0.044077301  0.045806282  0.045507016 
 3033000   0.40092781  0.047516211  -0.48138915    0.1199725   0.37757111  0.043565739  0.052000304  0.046982591 
 3034000   0.40078589  0.046087522  -0.48414541   0.11700336   0.36685666  0.046305053  0.047702381  0.044255133 
 3035000   0.39842951  0.046193173  -0.48147926   0.11613513   0.36656118  0.048172905   0.04443102  0.045975593 
 3036000   0.40441189  0.047137366  -0.48230819   0.12427931    0.3798241  0.047581621  0.044884475  0.048946004 
 3037000   0.40257626  0.047038188  -0.48207782   0.12175637   0.37676349  0.047019693   0.04626844   0.04782643 
 3038000    0.4018369  0.047220594  -0.48286877   0.11985645   0.37585244  0.045864638  0.048569203  0.047227942 
 3039000   0.39932228  0.045440917  -0.48108549   0.11786798   0.36421584   0.04111231  0.047393802  0.047816639 
 3040000   0.40289707  0.046472384  -0.47952116   0.12479424   0.37673397  0.046233633  0.045063059   0.04812046 
 3041000   0.39682587  0.046418101  -0.47948197   0.11572707   0.36737253  0.046146416   0.04571225  0.047395636 
 3042000   0.39980742  0.046549669  -0.47784905    0.1218321   0.37419082  0.046069965  0.050198409  0.043380634 
 3043000   0.39759854  0.046296914  -0.47462457   0.12174342   0.37273189  0.044261669  0.047502209  0.047126864 
 3044000   0.39741919  0.048553833  -0.47066262   0.12543635    0.3886602  0.050126814  0.048006149  0.047528537 
 3045000   0.39755842  0.048052605  -0.46802258   0.12828524    0.3887918   0.04726764  0.047276922  0.049613254 
 3046000   0.40152775  0.048673678  -0.46516917   0.13709234    0.4009659  0.048180697  0.049421576  0.048418761 
 3047000   0.40404506  0.046573661  -0.46380869   0.14222859   0.39471738  0.045441881  0.047968227  0.046310874 
 3048000   0.40103134  0.046748536  -0.46206656   0.13945038   0.39288721  0.049949084  0.045814583  0.044481939 
 3049000    0.3980064  0.044803129  -0.45965565    0.1373241   0.38021434  0.044384987  0.046231895  0.043792507 
 3050000   0.39815502  0.044423972  -0.45599079   0.14121189   0.38204661  0.044201674  0.044551057  0.044519183 
 3051000   0.39630419  0.046222408  -0.45635894   0.13806762   0.38865217   0.04629784  0.046349228  0.046020157 
 3052000   0.39769228  0.048215427  -0.45389253   0.14261605   0.40400531    0.0467701  0.049878197  0.047997983 
 3053000   0.40117823  0.049910087   -0.4551352   0.14660205   0.41717854  0.049933435  0.049311892  0.050484935 
 3054000   0.40112823  0.047265228  -0.45370395   0.14795831   0.40419628  0.046135104  0.044730897  0.050929684 
 3055000   0.40098048  0.045676161  -0.44957252   0.15186812   0.39949131  0.045624914  0.047113632  0.044289937 
 3056000   0.40305544  0.048299066  -0.45167494   0.15287799   0.41472068  0.047977047  0.048872013  0.048048138 
 3057000   0.40070656  0.046418253  -0.44622253   0.15480726   0.40645353  0.046433594  0.047215205  0.045605961 
 3058000   0.40270279  0.049589938  -0.44402714   0.15999684   0.42883771  0.048284372  0.049094743    0.0513907 
 3059000   0.40347573  0.047363958  -0.44941084   0.15577249    0.4125457  0.047110078  0.047658572  0.047323223 
 3060000    0.3979665  0.049555291  -0.44612872   0.15079118   0.41944422  0.048533511  0.049720608  0.050411755 
 3061000    0.3994679  0.050316663  -0.44628196   0.15288993   0.42567057  0.050109327  0.049935032  0.050905629 
 3062000   0.39987445  0.045624601  -0.44550999    0.1542717   0.40161537  0.045284676  0.044709236  0.046879893 
 3063000   0.40121204   0.04754139  -0.44421561   0.15757237   0.41530748  0.046087543  0.048835978  0.047700648 
 3064000   0.40277598  0.047356584  -0.44879944   0.15533432   0.41206755  0.045663541  0.049724066  0.046682143 
 3065000   0.40184495  0.047117255  -0.44485625   0.15788103   0.41331679  0.047536742  0.045425378  0.048389645 
 3066000   0.39996897  0.047480717  -0.44270503   0.15721842   0.41462461  0.046585855  0.046530056   0.04932624 
 3067000   0.39721783   0.04691038  -0.44053765    0.1552593   0.40957354  0.045955062  0.047576278    0.0471998 
 3068000   0.40029159  0.049046395   -0.4394429   0.16096447   0.42685863  0.053153442  0.046649783  0.047335961 
 3069000   0.40201218  0.046117391  -0.43805745   0.16493068    0.4149459  0.047926707  0.045747566  0.044677901 
 3070000   0.40550796  0.047664092  -0.43570234   0.17252919   0.43092951  0.047253574  0.047935776  0.047802925 
 3071000   0.40217393  0.047734824  -0.43564985   0.16758088   0.42636466  0.050188375  0.046691801  0.046324296 
 3072000   0.40252112  0.050859241  -0.43594826   0.16780324   0.44352535  0.050099668  0.053093238  0.049384817 
 3073000    0.4006119  0.046715929  -0.43724149   0.16364631   0.41690637  0.046058211  0.048073767  0.046015809 
 3074000   0.40192591   0.04738878   -0.4357424   0.16711633    0.4240241   0.04690689  0.045523835  0.049735616 
 3075000   0.40007865  0.046331748  -0.43258841   0.16749955   0.41867686  0.046912875  0.046665275  0.045417096 
 3076000   0.39754278  0.047155367  -0.43519711   0.16108725   0.41672963  0.048081546  0.047851298  0.045533258 
 3077000   0.39961657   0.04882531  -0.43272202   0.16667286   0.43136846  0.051336366  0.047612095  0.047527468 
 3078000   0.39591223  0.045723671  -0.42918879   0.16464986   0.41253062  0.044754334  0.047522451  0.044894227 
 3079000   0.40035447  0.047167201    -0.429824   0.17067768   0.42638421  0.048077914  0.045863564  0.047560124 
 3080000   0.39695619  0.046864782  -0.42874368   0.16666083   0.42072787  0.046800415   0.04662638   0.04716755 
 3081000   0.39529277  0.046644464  -0.42439819   0.16851131   0.42138394  0.045216484  0.047646957  0.047069951 
 3082000   0.39958878  0.045026421  -0.42144686   0.17790634   0.42200711  0.043742036  0.045800067   0.04553716 
 3083000   0.40026906  0.047798497  -0.42447288    0.1759007   0.43502966   0.04786485  0.047419788  0.048110854 
 3084000   0.39905365  0.047188996  -0.42276324   0.17578731     0.431612  0.046541285  0.048170551  0.046855151 
 3085000   0.40162622  0.048218791  -0.42505746   0.17735175   0.43875925  0.047481505  0.048558406  0.048616462 
 3086000   0.40082463  0.049021674   -0.4209614   0.18024548   0.44600563  0.049531008  0.048107507  0.049426508 
 3087000   0.40212786  0.045452258  -0.42035742    0.1828042   0.42921356  0.046872619   0.04475726  0.044726896 
 3088000   0.39905422  0.049388167  -0.42030696   0.17824445   0.44599146  0.050018156  0.047813282  0.050333061 
 3089000    0.3987836  0.046146832  -0.42199056   0.17615493   0.42632976  0.043609419  0.046924882  0.047906194 
 3090000   0.39956158  0.045783988  -0.42205662   0.17725578   0.42546353  0.043880749  0.044652503  0.048818712 
 3091000   0.40242509  0.047677846   -0.4199007   0.18370676   0.44218164  0.048709812  0.048830341  0.045493385 
 3092000   0.39712655  0.045181896  -0.41745809   0.17820195   0.42314559  0.046548987  0.043668525  0.045328176 
 3093000   0.40025458  0.048371814  -0.41539962   0.18495223   0.44718931  0.047604805  0.046903225  0.050607411 
 3094000    0.4011465  0.048718771  -0.41539069   0.18629897     0.450417   0.04975257  0.047388613  0.049015129 
 3095000   0.40068784  0.050508921  -0.41642718   0.18457454   0.45839746  0.052742054  0.048308869  0.050475838 
 3096000   0.39816771   0.04957682  -0.41110814   0.18611356   0.45488331   0.05049719  0.047991534  0.050241737 
 3097000   0.39758349  0.048540061  -0.41307254   0.18327287   0.44642206  0.046094321  0.049610465  0.049915395 
 3098000   0.39935502   0.04760058  -0.41206874   0.18693384   0.44498984  0.047982908  0.046840156  0.047978676 
 3099000   0.40035804  0.048815528  -0.41502212   0.18548491   0.45012748  0.048100305  0.047699628  0.050646652 
 3100000    0.3982705  0.050041094  -0.41256909    0.1848068   0.45609351  0.050845992  0.050030399   0.04924689 
 3101000   0.40156298  0.049783185  -0.41179717   0.19051719    0.4604057   0.05043341  0.050850195   0.04806595 
 3102000   0.39798505  0.047691773  -0.41720906   0.17973868   0.43828906  0.048096243   0.04787663  0.047102446 
 3103000   0.39864331  0.047864727  -0.41545528   0.18247979    0.4419678  0.048153773  0.045255725  0.050184683 
 3104000    0.3946765  0.048970026  -0.41027519   0.18170996   0.44719011  0.048120334  0.048501059  0.050288684 
 3105000   0.40201084  0.047816752   -0.4140535   0.18893261   0.44816054   0.04969828  0.046486483  0.047265492 
 3106000    0.3988838  0.048908322  -0.40964209    0.1886537   0.45379933  0.047691489  0.048219823  0.050813655 
 3107000   0.40219939  0.049001008  -0.41224325   0.19102566   0.45667377  0.050555496    0.0476089  0.048838627 
 3108000   0.40051749  0.048469057  -0.41074456   0.19000164    0.4527659  0.045971079  0.049505351  0.049930741 
 3109000   0.40022377   0.04719243   -0.4076061   0.19269953   0.44854284  0.049159244  0.048853936  0.043564109 
 3110000   0.40034111  0.048507243  -0.40782307   0.19265857   0.45562985  0.048298711  0.049524734  0.047698283 
 3111000   0.40434409   0.04845368  -0.41026819   0.19621762   0.45889851  0.048384409  0.050008146  0.046968487 
 3112000   0.40110664  0.049045927  -0.40832474   0.19330513   0.45919676  0.049405581  0.049172503  0.048559697 
 3113000   0.40254867  0.049378486  -0.40605132   0.19774149   0.46543601  0.050396266  0.046521679  0.051217513 
 3114000   0.40106096  0.049066655  -0.40508638   0.19647498   0.46247898   0.05123444  0.046537339  0.049428186 
 3115000   0.39818224  0.045639955  -0.40598644   0.19125706   0.43868397  0.043756162  0.048483649  0.044680056 
 3116000   0.39573814   0.04693551  -0.40616041   0.18741713    0.4418676  0.046190993  0.045649024  0.048966513 
 3117000   0.40118154  0.047235025   -0.4026291   0.19911312   0.45518734  0.048456795   0.04667139  0.046576891 
 3118000   0.40219708  0.047066485  -0.40481019   0.19845527    0.4536158  0.047390205  0.048105288  0.045703962 
 3119000   0.40100127  0.048503495   -0.4020832   0.19938864    0.4623396  0.047758335  0.050053436  0.047698715 
 3120000   0.40287738  0.050812192  -0.39848144   0.20580441   0.48127145  0.051213692  0.052358367  0.048864516 
 3121000    0.3991992  0.047550635  -0.40312604   0.19564281   0.45342805   0.04934389  0.047290983  0.046017032 
 3122000   0.39840473  0.046744589  -0.40322701   0.19435021   0.44776564  0.048849155  0.045092062   0.04629255 
 3123000    0.4042577  0.049480812  -0.40102367   0.20533256   0.47358183  0.050421122  0.051192892  0.046828423 
 3124000   0.40129961  0.047614739  -0.40043767   0.20148164    0.4596144  0.046887978  0.048150164  0.047806074 
 3125000   0.40004203  0.049639648  -0.40239715   0.19763589   0.46674625  0.052195942  0.050126855  0.046596147 
 3126000   0.40097769  0.047548828  -0.40354237   0.19789409   0.45566953  0.048214192  0.050277154  0.044155139 
 3127000   0.40160402  0.048543846  -0.40233241    0.2000435   0.46321321  0.048639745  0.047447944  0.049543849 
 3128000   0.40037057  0.050573264  -0.39978934   0.20073649   0.47490824  0.049320158  0.050410069  0.051989564 
 3129000   0.40051912  0.049197358  -0.39917275    0.2015759   0.46828848  0.049824575  0.049144195  0.048623304 
 3130000   0.40117911  0.048993557  -0.40079202   0.20094656   0.46655428  0.048777327  0.050888965  0.047314379 
 3131000   0.40041776  0.048347459  -0.39985284   0.20074376    0.4628488  0.049057613   0.04882941  0.047155354 
 3132000   0.40168417  0.048804974  -0.39942055   0.20307559   0.46766094  0.048131852  0.047947003  0.050336066 
 3133000   0.39984933  0.047859213  -0.39587792    0.2038661   0.46332422  0.046805539  0.051943847  0.044828253 
 3134000   0.39757208  0.047997486  -0.39761549   0.19871281   0.45892055  0.049151365  0.048307455  0.046533639 
 3135000   0.39316671  0.047066914  -0.39843024   0.19129034   0.44645319  0.049201172  0.046682844  0.045316724 
 3136000   0.39750684  0.048397416   -0.3956978   0.20053264   0.46290851  0.047518441  0.049507037  0.048166769 
 3137000   0.39678891  0.047004926  -0.39241238   0.20274123   0.45756802  0.045801888  0.047028124  0.048184767 
 3138000   0.40198656  0.050801096  -0.39385391   0.20909579   0.48450268  0.052627655  0.049149146  0.050626486 
 3139000    0.3970633  0.048252531  -0.39473653   0.20082863   0.46241905  0.048382776  0.048966185  0.047408633 
 3140000   0.39775467  0.045772214  -0.39454691   0.20205526   0.45019918  0.045725937  0.046208762  0.045381945 
 3141000   0.40051572  0.052970874   -0.3959961   0.20474744    0.4919173  0.055958169  0.051314691  0.051639763 
 3142000   0.40246068  0.052613023  -0.39547347   0.20818737   0.49341722  0.053318835  0.052098383  0.052421852 
 3143000   0.40034787  0.048500592  -0.39236028   0.20813149    0.4710667  0.048606812  0.049515219  0.047379744 
 3144000   0.39933285  0.048951259  -0.39368043    0.2052889   0.47066731  0.049131646  0.047291063  0.050431068 
 3145000   0.40193224  0.048993903   -0.3933009   0.20956732   0.47517691  0.047651484  0.049594667  0.049735558 
 3146000   0.39993155  0.048968981  -0.39766173    0.2022056   0.46768009  0.048512781  0.047893471  0.050500692 
 3147000   0.40039917  0.050278557  -0.39505711   0.20551161   0.47808567   0.04839318  0.051014929  0.051427562 
 3148000   0.40090461  0.047976452  -0.39892731   0.20239953   0.46249324   0.04788788  0.048935653  0.047105823 
 3149000   0.39918281  0.050020603  -0.39396401   0.20478027   0.47595589  0.049955605  0.051813116  0.048293087 
 3150000   0.39124758  0.050148183   -0.3905421   0.19629992   0.46816719  0.050584005  0.051718006   0.04814254 
 3151000   0.40073386  0.047167507  -0.39416594   0.20690479   0.46261298  0.049060347  0.045586895  0.046855278 
 3152000   0.39942028  0.052183176  -0.39196685   0.20713361   0.49003314  0.053233922  0.052466015  0.050849591 
 3153000    0.4020222  0.050233877  -0.39426919   0.20873396    0.4810658  0.050496355  0.050592733  0.049612545 
 3154000   0.40067356  0.048045333  -0.39298614   0.20799415   0.46846128  0.048462216  0.046739527  0.048934257 
 3155000   0.40240881  0.050616629  -0.39156936   0.21201367   0.48642051  0.049174776  0.050446119  0.052228991 
 3156000   0.39929476  0.047770857  -0.39249313   0.20641906   0.46539818  0.045507901  0.050187906  0.047616764 
 3157000   0.39662195  0.049180165  -0.39164937   0.20325381   0.46987318  0.048951766  0.049671007  0.048917722 
 3158000   0.39971247  0.046475808  -0.39362796   0.20591077   0.45786907  0.046424118  0.046778718  0.046224587 
 3159000    0.4004811  0.048807267  -0.39182191    0.2088697   0.47346749   0.04862374  0.047843491   0.04995457 
 3160000    0.3993288  0.050490596  -0.39018415   0.20877909   0.48250268  0.050872507  0.050849604  0.049749677 
 3161000   0.39642086  0.048341185  -0.39022149   0.20438007    0.4664511  0.049473573  0.046977418  0.048572566 
 3162000   0.40005483  0.047392735  -0.39438134    0.2056709   0.46260012  0.047537929  0.048615483  0.046024795 
 3163000   0.39737782  0.048553162  -0.39278376   0.20325316   0.46647338  0.048032767  0.048426959  0.049199759 
 3164000   0.39995545  0.050199054  -0.39246627    0.2074369   0.47957995  0.051794455  0.048748368  0.050054338 
 3165000   0.39873853  0.047974663  -0.39204375   0.20603414   0.46611815  0.047409946  0.049335532   0.04717851 
 3166000   0.40040986  0.047572821  -0.39297263   0.20761213   0.46551765  0.047514133   0.04906464  0.046139691 
 3167000   0.39827805  0.048824203  -0.38987429   0.20751291   0.47220251  0.048332346   0.04910417  0.049036093 
 3168000   0.40070528  0.050062927  -0.39181885   0.20920901   0.48061408  0.049799818  0.050078514  0.050310449 
 3169000   0.40012422   0.04872408  -0.39344718   0.20670914   0.47085595  0.049044676  0.048832569  0.048294997 
 3170000   0.39843288  0.046889195  -0.39276314    0.2048563   0.45905569    0.0480982  0.047410508  0.045158878 
 3171000   0.39833498  0.047556305   -0.3944833    0.2029893   0.46080528  0.046479757  0.048561495  0.047627664 
 3172000    0.4002871  0.050352472  -0.39077217   0.20962847   0.48260324  0.051227942  0.048240054   0.05158942 
 3173000   0.39961531  0.050079401  -0.38928844   0.21010456   0.48159894  0.049623897  0.050904534  0.049709773 
 3174000   0.39879456  0.052099029  -0.38952273    0.2086392   0.49108254  0.051564806  0.050617127  0.054115154 
 3175000   0.39740208  0.046258116  -0.39393818   0.20213514   0.45291327  0.047749217  0.045304623  0.045720508 
 3176000   0.39755852   0.04732986  -0.39165019   0.20465777   0.46124612  0.047903005  0.046989279  0.047097295 
 3177000   0.39723819  0.047558343  -0.38970247   0.20612502   0.46395204  0.046045572  0.047721227   0.04890823 
 3178000   0.39829042  0.051909434  -0.39112295    0.2062828    0.4876983  0.052176518  0.052874504   0.05067728 
 3179000   0.40035304  0.047270176  -0.39233957   0.20815996   0.46442475  0.047451198  0.046311559  0.048047771 
 3180000   0.40029928   0.04958006  -0.39124043   0.20917847   0.47796578  0.051348864  0.049960362  0.047430954 
 3181000   0.39862667  0.050307099  -0.38783255   0.21007756   0.48280635  0.050902954  0.050929437  0.049088907 
 3182000   0.40255521  0.047736756  -0.38919086   0.21461176   0.47340601   0.04867044  0.046952564  0.047587263 
 3183000   0.40130525  0.050583757  -0.38908423   0.21284354   0.48707218  0.051445123  0.050945346  0.049360803 
 3184000   0.40206173  0.048014953  -0.38807678   0.21498566   0.47528809  0.048120101  0.048265638   0.04765912 
 3185000    0.3987961  0.048377035  -0.38940711   0.20875713   0.47102251  0.048506063  0.047253603   0.04937144 
 3186000   0.39660127  0.048262795  -0.38926179   0.20561037   0.46725642  0.045921949  0.050569985  0.048296451 
 3187000   0.40204189  0.051722628  -0.38604059   0.21699208   0.49739485  0.051573162  0.052974582  0.050620139 
 3188000   0.40333695  0.048852648  -0.38686172   0.21811345   0.48295726  0.048275368  0.049428889  0.048853685 
 3189000   0.40143399  0.047988417  -0.38499466   0.21712621   0.47728479   0.04798442  0.048396347  0.047584483 
 3190000   0.40086027  0.048647873  -0.38798153    0.2132788   0.47701247  0.049785002  0.046907738  0.049250881 
 3191000   0.39728155   0.04973465  -0.38677619   0.20911635   0.47874174  0.047362757  0.049625211  0.052215984 
 3192000   0.40030227  0.048372229  -0.38822343   0.21219996   0.47443928   0.04615232  0.049350165  0.049614202 
 3193000   0.39730448  0.048736931  -0.38754337   0.20838356   0.47260004  0.047719307  0.049889715  0.048601773 
 3194000   0.39673045  0.050825329  -0.38731566   0.20775027   0.48328853  0.054420636   0.04944198  0.048613373 
 3195000   0.39873439  0.049739431  -0.38450966   0.21356203   0.48321334  0.050643809  0.047702663   0.05087182 
 3196000   0.40142974  0.048873494  -0.38793467   0.21417983   0.47913665  0.049605271  0.048632866  0.048382344 
 3197000   0.40312512  0.049410109   -0.3876352   0.21702224    0.4848882   0.04920413  0.049649226   0.04937697 
 3198000   0.40110261  0.052640228   -0.3864758   0.21514804   0.50052538  0.054391748   0.05195588  0.051573058 
 3199000   0.40198866  0.048997356  -0.38974836   0.21320449    0.4788328  0.046638185    0.0522887  0.048065183 
 3200000   0.40007604  0.049865803  -0.39002725    0.2100568   0.48039321  0.048135141  0.049837894  0.051624375 
 3201000   0.39724351  0.047738408  -0.38819023   0.20764524   0.46644844  0.047550654  0.048448387  0.047216182 
 3202000   0.39689681  0.050083625  -0.38637161   0.20894384   0.48046113  0.050532732  0.049947241  0.049770903 
 3203000   0.40109922  0.048511705  -0.38887801   0.21274074    0.4757362  0.047219386   0.04786831   0.05044742 
 3204000   0.40173961  0.050664931  -0.38816098    0.2144183     0.489087  0.049386993  0.050765446  0.051842354 
 3205000   0.40066858  0.048554017   -0.3867144   0.21425842   0.47748327  0.047058285  0.050228104  0.048375663 
 3206000    0.4005625  0.048791002  -0.38876014   0.21205356   0.47656317   0.05063619  0.046268385  0.049468432 
 3207000   0.39822852  0.052510265  -0.38505622   0.21225669   0.49692946  0.051577829  0.054739673  0.051213294 
 3208000    0.3980946  0.048932254  -0.38583992   0.21127213    0.4765475   0.04743811  0.051037442   0.04832121 
 3209000   0.40048688  0.049582989  -0.38593922   0.21476107   0.48356427  0.050322774  0.050817052  0.047609142 
 3210000   0.40177014  0.051326589  -0.38362496   0.21900012   0.49725585  0.052948067  0.050341533  0.050690167 
 3211000   0.40073719  0.048619058  -0.38956939   0.21150633   0.47508379  0.049444456  0.048209863  0.048202855 
 3212000   0.40033896  0.048677997  -0.38781967   0.21265875   0.47655573  0.047345328  0.048484117  0.050204547 
 3213000   0.40057672  0.050569762   -0.3834757   0.21735933   0.49151209  0.050809276  0.050375616  0.050524395 
 3214000   0.40095329  0.049844477  -0.38889725   0.21250262   0.48272341  0.049025813  0.048981648  0.051525972 
 3215000   0.39804081  0.048681928  -0.38898689   0.20804447   0.47196276  0.048048628  0.050058651  0.047938505 
 3216000   0.39700817  0.049602218   -0.3885323   0.20695018   0.47585762  0.048343518  0.052423348  0.048039787 
 3217000   0.39891843  0.050411662  -0.38696138   0.21138635     0.484682  0.049113127  0.052491256  0.049630602 
 3218000    0.3996483  0.047870554   -0.3869543   0.21248817   0.47200777  0.046243703  0.048010369  0.049357589 
 3219000   0.40086765  0.048010684  -0.38832841     0.212943   0.47322228  0.048296474  0.046335966   0.04939961 
 3220000   0.39774952  0.050227537  -0.38290635    0.2136881   0.48598557  0.051050218  0.048987962  0.050644433 
 3221000   0.39868525   0.04895948  -0.38550434   0.21249364   0.47791662  0.050408573  0.050318674  0.046151193 
 3222000   0.39970034  0.049568632  -0.38710333    0.2124172   0.48114256   0.04870159  0.050182749  0.049821558 
 3223000   0.40212618  0.051278738  -0.38309922   0.22005988    0.4980562  0.052797706  0.050858786  0.050179721 
 3224000   0.39901789   0.05057795  -0.38682984   0.21166707   0.48586422  0.047847983  0.052379681  0.051506185 
 3225000   0.39775273   0.05005209  -0.38697499   0.20962426   0.48097058  0.050546129  0.049998119  0.049612021 
 3226000   0.39874727   0.04880837  -0.38701635   0.21107465   0.47567841  0.049000123  0.049388213  0.048036773 
 3227000   0.39992859  0.050136986  -0.38473574   0.21512714   0.48693371  0.051186816  0.048473794  0.050750347 
 3228000   0.39723217  0.050528581  -0.38717053   0.20864793   0.48257744  0.052515863  0.048043081  0.051026799 
 3229000   0.39862346  0.049546195  -0.38391487   0.21399042   0.48259414  0.050531675   0.05046808   0.04763883 
 3230000   0.40276225  0.051153462  -0.38676803   0.21734513   0.49466229  0.051888014  0.050300689  0.051271684 
 3231000   0.40083444  0.048181113  -0.38678303   0.21443856    0.4756418  0.046771502  0.049705834  0.048066003 
 3232000   0.39915774   0.04839541  -0.38635641   0.21235025   0.47471525  0.048137418  0.049780589  0.047268224 
 3233000   0.39809946  0.047944304  -0.38705093   0.21006841   0.46998783  0.047841467  0.048053281  0.047938163 
 3234000   0.39724291  0.048421306  -0.38583282   0.21000174   0.47250713  0.050495929   0.04868634  0.046081649 
 3235000   0.40306447   0.04981515  -0.38482838   0.21973809    0.4897999  0.051354166  0.048187721  0.049903564 
 3236000   0.40608653  0.051922479  -0.38598959   0.22310974   0.50459596  0.050214037  0.052039799    0.0535136 
 3237000   0.39776581  0.046957471   -0.3883118   0.20830708   0.46287661  0.046651777  0.047026386  0.047194248 
 3238000   0.39940881  0.049271723  -0.38813947   0.21094379   0.47805952  0.049876063   0.04903963  0.048899478 
 3239000   0.39924435   0.04972287   -0.3890804   0.20975618   0.47931771  0.050570416  0.046455909  0.052142286 
 3240000   0.40479882   0.05060875  -0.38636433   0.22080354   0.49516767  0.051830364  0.050496959  0.049498926 
 3241000   0.40087729  0.049664557  -0.38534425   0.21594162   0.48518701  0.048912385  0.050321056   0.04976023 
 3242000    0.4003444  0.049470953  -0.38540903   0.21507755   0.48327337  0.050032767  0.049788428  0.048591664 
 3243000   0.40151663  0.048150287  -0.38307538   0.21916946   0.48020557   0.04992421  0.047819479  0.046707172 
 3244000   0.40058007  0.049474961  -0.38697631   0.21386375    0.4820813  0.051411908  0.049168075    0.0478449 
 3245000   0.39968809  0.049303753  -0.38687007   0.21263209   0.47992147  0.051608366  0.046394394  0.049908499 
 3246000   0.40217195  0.050291593  -0.38581932   0.21740845   0.49005319  0.049999656  0.050870964  0.050004159 
 3247000   0.40026927  0.049046615   -0.3870638   0.21331008   0.47920544  0.048931747  0.049583121  0.048624978 
 3248000   0.40497682  0.049625729  -0.38826963   0.21916523   0.48820012   0.04900071  0.050302424  0.049574051 
 3249000   0.40065249  0.047604213  -0.38509962   0.21584907   0.47392476  0.046186556  0.049221202  0.047404881 
 3250000   0.39728393  0.049968492  -0.38600056   0.20989554   0.48078865  0.048074836  0.051138584  0.050692056 
 3251000   0.39876911   0.05117263  -0.38565548   0.21246828   0.48988936  0.049896313  0.051836982  0.051784596 
 3252000   0.39763116  0.049125681  -0.38593776   0.21047916   0.47680316  0.048962802  0.048524173  0.049890068 
 3253000   0.39987854  0.047987106  -0.38543043   0.21435739   0.47450885  0.046591375   0.04807574  0.049294204 
 3254000   0.39804085  0.050805862  -0.38727946   0.20975197    0.4851847  0.051574016  0.050795244  0.050048326 
 3255000   0.40471496  0.048713374   -0.3850621   0.22197998   0.48606875  0.049209937  0.045960348  0.050969836 
 3256000   0.39299794  0.048532562  -0.37943868   0.21002876   0.47313729   0.04728556  0.048676962  0.049635163 
 3257000   0.39872565  0.048065523  -0.38409086   0.21396771   0.47454429  0.047540362  0.049399847  0.047256358 
 3258000   0.40020102  0.049754922  -0.38257431   0.21769721    0.4874325  0.050156179  0.047981262  0.051127327 
 3259000   0.39889893  0.049117651  -0.38077066   0.21754782   0.48382829  0.048189383  0.050126178  0.049037393 
 3260000   0.39896135  0.050394841  -0.38591852   0.21249358   0.48569805  0.049116839  0.050287611  0.051780073 
 3261000   0.40328215  0.052277689  -0.38312366   0.22176933   0.50518124  0.052671172  0.051552638  0.052609257 
 3262000   0.40226229  0.049608655  -0.38442302   0.21894025   0.48788259  0.048808563  0.051817636  0.048199766 
 3263000   0.40379644  0.048981651  -0.38144445   0.22421992   0.48976309  0.049531696  0.050457805  0.046955452 
 3264000   0.40500819  0.050170865  -0.38093444   0.22654748   0.49853771  0.052138352  0.050012089  0.048362154 
 3265000   0.40160475  0.051676081  -0.38077321    0.2216038   0.50175422  0.052422561  0.052080407  0.050525274 
 3266000    0.4017668  0.050037764  -0.38435116    0.2182689   0.48953756  0.048735743  0.051210379  0.050167171 
 3267000   0.40123891  0.049864564  -0.38380837   0.21801991    0.4883496  0.050316284  0.048330876  0.050946532 
 3268000   0.39976226  0.047883716  -0.38228238   0.21733103   0.47692199  0.048353843  0.048785703  0.046511602 
 3269000   0.39708023  0.048288379  -0.38259766    0.2129929   0.47477765   0.04693938  0.049990575  0.047935181 
 3270000    0.3978189  0.050442205  -0.38240994   0.21428858   0.48774983  0.052580981  0.050658605   0.04808703 
 3271000   0.39860774  0.048680874  -0.38395742    0.2139243   0.47783687  0.049795778  0.049329343  0.046917501 
 3272000   0.39629594  0.047739543  -0.38583017   0.20858402   0.46739338  0.048349016  0.049129042  0.045740571 
 3273000   0.39534579  0.047815113   -0.3833692   0.20961983   0.46883887  0.047456622  0.047365785   0.04862293 
 3274000   0.39717033  0.048849647  -0.38241646   0.21330925   0.47813679   0.05014975  0.047093071  0.049306119 
 3275000   0.40114072   0.04957342  -0.38454113   0.21713986   0.48589118  0.049900924  0.049911393  0.048907944 
 3276000   0.40130075  0.050758029  -0.38355762   0.21836341   0.49353682  0.050985994  0.053566734   0.04772136 
 3277000   0.40142014  0.051562214  -0.38090744   0.22119266   0.50072578  0.051340136  0.051599511  0.051746995 
 3278000   0.39915227  0.054289328  -0.37929334   0.21940512   0.51372269  0.053961583   0.05488515  0.054021249 
 3279000   0.39520883  0.047702237   -0.3842138   0.20856981   0.46717693  0.045762682  0.048426474  0.048917554 
 3280000   0.39853623  0.047642158  -0.38429955   0.21347491   0.47175631  0.046919663  0.047355166  0.048651644 
 3281000   0.40023851  0.049230125  -0.38407159   0.21625616   0.48314638  0.050740905  0.049428538  0.047520933 
 3282000   0.40028273  0.049457684  -0.38458905   0.21580503   0.48392891  0.049442696  0.047676126  0.051254229 
 3283000   0.39775647  0.047726477  -0.38592822   0.21067665   0.46941517   0.04710793  0.046723099    0.0493484 
 3284000   0.39955424  0.050390255  -0.38375444   0.21554696   0.48872657  0.049012258  0.052571567  0.049586941 
 3285000   0.39915633   0.04896381  -0.38287347   0.21583109   0.48127754  0.050599443  0.048787701  0.047504284 
 3286000   0.40292786  0.050650962  -0.38727521   0.21708636   0.49167933  0.051468095  0.052044483  0.048440307 
 3287000   0.40201682  0.050560424  -0.38519663   0.21779845   0.49190059  0.048852078  0.052694103  0.050135092 
 3288000   0.40206112  0.047939543  -0.38490158   0.21815994   0.47805356  0.048809415  0.047994832  0.047014383 
 3289000   0.40207445  0.051024724  -0.38476768   0.21831384   0.49493308  0.053078796  0.050822878  0.049172499 
 3290000   0.39621845  0.047535854  -0.38535935   0.20893861   0.46664372  0.047330394  0.050631494  0.044645675 
 3291000   0.39877522  0.049273524  -0.38252223    0.2156107    0.4827362  0.049191105  0.046879125  0.051750343 
 3292000   0.39850193  0.049206013  -0.38597062   0.21175239   0.47851189  0.048812414  0.049898059  0.048907566 
 3293000   0.39935044  0.050364056  -0.38413694   0.21485877   0.48789635  0.050199734  0.050516615  0.050375821 
 3294000   0.39944001  0.048555077  -0.38597141   0.21315865   0.47638924  0.047196718  0.050006697  0.048461815 
 3295000   0.40138723  0.050685964  -0.38519604    0.2168547   0.49163742  0.049780481  0.049179296  0.053098114 
 3296000   0.40506289   0.05043236  -0.38796237   0.21960158   0.49300945  0.051315296  0.049218954  0.050762829 
 3297000   0.40318671  0.050300822  -0.38822698   0.21652284    0.4892176  0.049411735  0.051630179  0.049860553 
 3298000   0.39892757  0.047964743  -0.38613892   0.21222253   0.47225276  0.048284842  0.049546221  0.046063166 
 3299000   0.39914284  0.046939914  -0.38203056   0.21665375    0.4711281  0.047811802  0.045998718  0.047009224 
 3300000   0.39909453  0.046908604  -0.38575737   0.21285449    0.4671591  0.045886005  0.047844967  0.046994839 
 3301000   0.39848251   0.05086688  -0.38461313   0.21308075   0.48884427  0.051121479  0.050147552   0.05133161 
 3302000   0.39987205  0.047899318  -0.38525883   0.21451925   0.47419479  0.049350235  0.047094892  0.047252826 
 3303000   0.39933539  0.047508979   -0.3876573   0.21131584   0.46887524  0.050310151  0.044593295  0.047623491 
 3304000   0.39800887  0.049726603  -0.38489898   0.21208447   0.48166624  0.048825864  0.050547648  0.049806298 
 3305000   0.39691963  0.048882784  -0.38180456   0.21354511    0.4785523    0.0470441  0.049482546  0.050121707 
 3306000   0.39925998  0.051195992  -0.38403013   0.21482989   0.49237762  0.051640702  0.049988521  0.051958755 
 3307000    0.4035385  0.050069537  -0.38327246   0.22200502   0.49344592  0.054000177  0.049221601  0.046986832 
 3308000   0.40349801  0.048832675  -0.38386363   0.22135313   0.48608866  0.048702529  0.046386016  0.051409482 
 3309000     0.402253  0.049652713  -0.38719104   0.21615828   0.48533947   0.05120728  0.047357615  0.050393244 
 3310000   0.39739407  0.049179186  -0.38290159   0.21315971   0.47977377  0.049811777  0.047893525  0.049832256 
 3311000   0.39939915  0.048415006  -0.38301759   0.21605118   0.47852241  0.047591808   0.04763356  0.050019649 
 3312000   0.39731283  0.049085646  -0.38353865    0.2124008   0.47850776   0.04991096    0.0480067  0.049339279 
 3313000   0.40007277  0.049747643  -0.38555873   0.21452041   0.48421624  0.048979919  0.051396827  0.048866183 
 3314000   0.40097956  0.047643479  -0.38924261   0.21219665   0.47048521  0.048232214  0.047597075  0.047101148 
 3315000   0.39839406  0.051795548  -0.38462656   0.21293465   0.49373274  0.051449666  0.052741645  0.051195333 
 3316000   0.39973224  0.049649156  -0.38523709    0.2143313    0.4834932  0.049318952    0.0495095  0.050119014 
 3317000   0.39699171  0.048977593  -0.38473723   0.21072056   0.47624173  0.048654963  0.049907746   0.04837007 
 3318000   0.39807837   0.04813124  -0.38574585   0.21134184    0.4722747    0.0472629  0.047339556  0.049791265 
 3319000   0.39937995  0.049278512  -0.38363268   0.21540728   0.48255982  0.047261779   0.05163683  0.048936926 
 3320000    0.4000266  0.050600294  -0.38387276   0.21613713   0.49045542  0.047852745  0.052685818   0.05126232 
 3321000   0.39836993  0.052033682  -0.38105365   0.21647137   0.49856045  0.052089086  0.052939124  0.051072835 
 3322000   0.39919935  0.050255399  -0.38386095   0.21490814   0.48735665  0.051416693  0.049118337  0.050231168 
 3323000   0.39837549  0.048818551  -0.38655615   0.21097721   0.47563617   0.04712931  0.049886267  0.049440076 
 3324000   0.40127304   0.05022963  -0.38722904   0.21465043   0.48695925  0.049414236  0.050894083  0.050380572 
 3325000   0.39822599  0.051345534   -0.3833198   0.21398932   0.49234777  0.051498789  0.050176565  0.052361248 
 3326000   0.40007357  0.047817257   -0.3843737   0.21570665   0.47493731  0.048707685  0.046523194  0.048220891 
 3327000   0.39805996  0.049716885  -0.38299365   0.21406643   0.48359551  0.046354783  0.049845773    0.0529501 
 3328000   0.39557625   0.04777373  -0.38520029   0.20813441   0.46712911  0.046504546  0.049910336  0.046906308 
 3329000   0.40307501  0.050009496  -0.38433911   0.22024316   0.49135857   0.05015416  0.052764822  0.047109505 
 3330000   0.40296567   0.04833588  -0.38388352   0.22053477   0.48257703  0.048392503  0.049345459  0.047269678 
 3331000   0.40183416  0.049647911  -0.38325399   0.21946711   0.48862227  0.048420875  0.051175459  0.049347397 
 3332000   0.40147886  0.051128946  -0.38186665   0.22032153   0.49750578  0.048899375  0.049829904  0.054657559 
 3333000   0.39735849  0.048392435  -0.38502528   0.21098265   0.47333152  0.048777945  0.046815588  0.049583773 
 3334000   0.39488158  0.046842038  -0.38499429   0.20729847    0.4612422  0.045964938   0.04790653  0.046654645 
 3335000   0.40271954   0.04950649  -0.38395072   0.22009838   0.48848685  0.048646469  0.048798056  0.051074945 
 3336000   0.40157394  0.049131538  -0.38101532   0.22131547   0.48767122  0.050017554  0.046687327  0.050689734 
 3337000   0.39983808  0.050004566   -0.3848862   0.21484093   0.48592961  0.048235016  0.051181216  0.050597465 
 3338000   0.39573387  0.047960605  -0.38188338   0.21168774   0.47169554   0.04792049  0.047693576  0.048267748 
 3339000   0.39963416  0.049127247  -0.37957008   0.21985118   0.48618367  0.053504357  0.046506723  0.047370663 
 3340000   0.40178266  0.050764936  -0.38612227   0.21652158   0.49173244  0.050158416  0.050910835  0.051225559 
 3341000   0.40199738  0.047168315  -0.38392501   0.21904091   0.47475348  0.048292892  0.046609821  0.046602232 
 3342000   0.40848481   0.05115256  -0.38308362   0.22961297   0.50692524  0.051592696  0.050084492  0.051780492 
 3343000   0.40457066  0.050792847   -0.3843287   0.22249695   0.49785912  0.047325752  0.051856687  0.053196103 
 3344000   0.40103238  0.048141782  -0.38065556   0.22086294   0.48185294  0.050163047  0.048922874  0.045339423 
 3345000   0.39993475  0.048694942  -0.38547652   0.21439562   0.47838446  0.050164586  0.049098147  0.046822095 
 3346000   0.39796595  0.051334741  -0.38471331   0.21220578    0.4905057  0.049927901  0.052522765  0.051553556 
 3347000   0.40036546  0.052378555  -0.38573393   0.21478424   0.49874297   0.05045128  0.053368402  0.053315984 
 3348000   0.39751416  0.048837638  -0.38519132   0.21105011   0.47581255  0.051381932  0.046379331  0.048751652 
 3349000   0.39893336  0.048356286  -0.38667486   0.21169526   0.47384815   0.04839552   0.04681676  0.049856579 
 3350000   0.39887408  0.048359621  -0.38604036   0.21224085   0.47441182  0.048428581  0.049183358  0.047466925 
 3351000   0.39650124  0.048110825    -0.383696   0.21102612    0.4718483  0.049920204  0.048897799  0.045514472 
 3352000   0.40465325  0.050938269  -0.38189546   0.22505407   0.50120461  0.052182525  0.051761015  0.048871266 
 3353000   0.40358826  0.050074285  -0.38535173   0.22000039   0.49146703  0.048484645   0.04980872   0.05192949 
 3354000   0.40166404  0.049631134  -0.38717363   0.21529231   0.48435651  0.047538874  0.050646968  0.050707559 
 3355000   0.40387021  0.050437159   -0.3848319   0.22094312   0.49437701   0.05040165  0.050454042  0.050455787 
 3356000   0.39594667  0.047476314   -0.3849242    0.2089661   0.46634842  0.046453154  0.047620178  0.048355611 
 3357000   0.40252016  0.050778945  -0.38199482   0.22175524   0.49704204  0.051774473  0.050825713  0.049736649 
 3358000   0.40171226  0.052960212  -0.38440669   0.21813157   0.50524363  0.052379648  0.052124172  0.054376815 
 3359000    0.3990866  0.050068268   -0.3817895   0.21681047   0.48824449  0.051011085  0.050368286  0.048825434 
 3360000   0.39662192  0.049280875  -0.38322132   0.21168182   0.47884717   0.05058622  0.048208146   0.04904826 
 3361000   0.40096646  0.049823025   -0.3840808   0.21733881    0.4874433  0.051451201  0.048698643  0.049319232 
 3362000    0.3963373  0.048703895  -0.38437578   0.21010045   0.47413783  0.049373617  0.046991911  0.049746157 
 3363000   0.39890951  0.049561831  -0.38836696   0.20996739   0.47865588  0.049325976  0.051093252  0.048266264 
 3364000   0.39934393  0.050568038  -0.38321323   0.21577272   0.48991614   0.05143481  0.050919352  0.049349952 
 3365000   0.40239883  0.049208116  -0.38516832   0.21839974   0.48517065  0.048427572  0.050096147  0.049100629 
 3366000   0.40234283  0.048172817   -0.3871847   0.21629938   0.47745764  0.047181156  0.048737565  0.048599731 
 3367000   0.40458363   0.04847903  -0.38535484   0.22149025   0.48430858  0.048061797  0.048830078  0.048545214 
 3368000   0.40033689  0.052231609  -0.38186009   0.21861522   0.50177732  0.050099193  0.053524679  0.053070955 
 3369000   0.40089926  0.051407609  -0.38251214   0.21880669   0.49750166  0.051050071  0.052442942  0.050729813 
 3370000   0.39992393  0.048507386  -0.38374868   0.21610722   0.47907927  0.047630032  0.047313275   0.05057885 
 3371000   0.39792068  0.050079935  -0.38115702   0.21569416   0.48719144  0.049841829  0.049989295  0.050408683 
 3372000   0.40531713  0.051354845  -0.38768226   0.22026304   0.49867196  0.054055309   0.05078398  0.049225247 
 3373000   0.40467147  0.052310418  -0.38263294   0.22434392   0.50793326  0.051508938  0.054615215    0.0508071 
 3374000    0.4027394  0.050120807  -0.38173994   0.22233896   0.49405781  0.049666354  0.050011876   0.05068419 
 3375000    0.4024088  0.049327178  -0.38193685   0.22164617   0.48906255  0.048584201  0.049378296  0.050019038 
 3376000   0.39868856  0.050661769  -0.38071158   0.21729135   0.49194291  0.050611156  0.051556384  0.049817767 
 3377000   0.40153246  0.050459747  -0.38252873   0.21973984   0.49329619  0.052662707  0.049280551  0.049435983 
 3378000   0.40188195  0.050622009  -0.38284662   0.21994616   0.49438217  0.050271649   0.05045563  0.051138749 
 3379000   0.40311523  0.050826213  -0.38353248   0.22111013   0.49665319  0.051226641  0.051350291  0.049901707 
 3380000   0.40265928  0.050845497  -0.38003807   0.22392066   0.49956826  0.052617962  0.052690853  0.047227677 
 3381000   0.40029856  0.050140722  -0.38501114   0.21540667   0.48723349  0.050795026  0.049257237  0.050369902 
 3382000   0.39821628  0.047848519  -0.38112623   0.21616833   0.47556848  0.048720275  0.048128942   0.04669634 
 3383000   0.39947949  0.048355414  -0.38528033   0.21390895   0.47605712  0.048436554  0.048741555  0.047888133 
 3384000   0.39991626  0.050821727  -0.38174491   0.21809948   0.49361822  0.051181393   0.05076583  0.050517957 
 3385000   0.39862743  0.048431931  -0.38482256   0.21308869   0.47565167   0.04800053  0.048328529  0.048966735 
 3386000   0.40379702  0.051186595  -0.37867098   0.22699427   0.50449106  0.052199811  0.048432528  0.052927445 
 3387000   0.40277526  0.049488421   -0.3816616   0.22247109    0.4907616  0.050112208  0.048991784  0.049361269 
 3388000   0.39814853   0.04757143  -0.38335455   0.21383839   0.47173636   0.04790261  0.048307444  0.046504237 
 3389000   0.40018679  0.048462966  -0.38405996    0.2161902   0.47892144  0.047547444  0.049024747  0.048816708 
 3390000   0.40293083  0.051546136  -0.38255044   0.22181558   0.50126154  0.051099126  0.051803459  0.051735824 
 3391000   0.39670673    0.0487618  -0.38347705   0.21155329   0.47590459   0.04873688  0.048583223  0.048965299 
 3392000   0.39743219  0.050946957  -0.37656006   0.21955841   0.49575605  0.050577214  0.051275797  0.050987859 
 3393000   0.40129446  0.049067494  -0.38222571   0.21968588   0.48569443  0.048625344  0.048726943  0.049850194 
 3394000   0.40364999  0.050405979    -0.383278   0.22216671   0.49543156  0.051649903  0.050492302  0.049075731 
 3395000   0.40173468  0.052993209  -0.37988411   0.22268779   0.50997873  0.049905213  0.054073122  0.055001291 
 3396000   0.40246885  0.050517969  -0.38178195   0.22189114   0.49576312  0.050583643   0.05070193  0.050268334 
 3397000   0.39988861  0.051051415  -0.37952768   0.22027525   0.49703918  0.050271433  0.049899291  0.052983521 
 3398000   0.39886432  0.050024584  -0.38249584   0.21577072   0.48696792  0.051329326  0.050575527  0.048168899 
 3399000   0.39700499  0.049945271  -0.38582175   0.20965596   0.48042318  0.048846858  0.051977774   0.04901118 
 3400000   0.39564126  0.048557048  -0.38349417   0.20993804   0.47317932  0.048833135  0.048775124  0.048062884 
 3401000   0.39752888   0.05105283  -0.38429896   0.21196454   0.48873615  0.049893539  0.049909711  0.053355241 
 3402000   0.39821408  0.047059856  -0.38501687   0.21227437   0.46739896  0.047720485  0.047271934   0.04618715 
 3403000   0.40112258  0.048146763  -0.38561722   0.21603656   0.47705357   0.04859999  0.046985869  0.048854429 
 3404000   0.40144829  0.048663703  -0.38224833     0.219894   0.48371349   0.04743952  0.048777839  0.049773752 
 3405000    0.4016889  0.049553015  -0.38190483   0.22059839   0.48923908   0.05067989  0.048489145  0.049490009 
 3406000   0.39981464  0.051800619  -0.38315611   0.21653586   0.49736144  0.050653707  0.052802036  0.051946114 
 3407000   0.39747632  0.047235684  -0.38423571   0.21194896   0.46802676  0.048073819  0.046320796  0.047312437 
 3408000   0.39898991  0.049799538    -0.382666   0.21578894   0.48576611  0.050614828  0.049734828  0.049048958 
 3409000   0.39959644   0.04900602   -0.3791202   0.22024449   0.48591978  0.050124103  0.048868832  0.048025126 
 3410000   0.39975841  0.050205825  -0.37873634    0.2208713   0.49305106  0.051664824  0.049884774  0.049067877 
 3411000   0.40169598  0.048010863  -0.38426229   0.21825156   0.47853182  0.049034563  0.048749523  0.046248503 
 3412000   0.40345097  0.048086279   -0.3849926    0.2201536   0.48084271  0.046924978  0.046672047  0.050661812 
 3413000   0.40238411  0.051906935  -0.38403336   0.21951262   0.50091457  0.051271126   0.05376085  0.050688828 
 3414000   0.40061374   0.04806925  -0.38508303   0.21580753   0.47640433  0.048736469  0.049328274  0.046143009 
 3415000   0.39616852  0.050927843  -0.38107339   0.21314968    0.4892437  0.049740781  0.051615519  0.051427229 
 3416000    0.3993404  0.051715729  -0.38423651   0.21474414   0.49510951  0.051258525  0.054332478  0.049556185 
 3417000   0.40069629   0.04924536   -0.3842179   0.21679649    0.4837693  0.048690013  0.049230456   0.04981561 
 3418000   0.39991704  0.049792334   -0.3866134   0.21323217   0.48317028  0.049130528  0.048815878  0.051430595 
 3419000   0.39933904  0.049554534  -0.38587482   0.21310379   0.48175272  0.049907866  0.048690321  0.050065415 
 3420000   0.39731415  0.049551855  -0.38237424   0.21356718   0.48220159  0.048907019  0.049808582  0.049939963 
 3421000   0.39811049  0.049197003  -0.38184662   0.21528925   0.48199991  0.048930352  0.050028851  0.048631805 
 3422000   0.39515336  0.049936253   -0.3836556   0.20904481   0.47976314  0.050202116  0.048799129  0.050807513 
 3423000   0.39998945  0.051061154  -0.38097269   0.21898148   0.49579822  0.052847379  0.050356148  0.049979937 
 3424000   0.40321126  0.050002413  -0.38092545    0.2238612    0.4949382  0.049750544  0.050465462  0.049791234 
 3425000   0.39323921  0.048599536  -0.38171575   0.20811356   0.47158519  0.048575195  0.048528572  0.048694842 
 3426000    0.3970065  0.051491579  -0.38105469   0.21442528   0.49357548  0.053100744  0.048473105  0.052900889 
 3427000   0.39940047  0.049149964  -0.38427991   0.21479084   0.48124648   0.05279785  0.047435715  0.047216326 
 3428000   0.39741334   0.04963359  -0.37948521     0.216605   0.48568252  0.047907185  0.050174484  0.050819101 
 3429000   0.40064785  0.050326265  -0.38103603   0.21990571    0.4927384  0.049122609  0.051393513  0.050462672 
 3430000   0.39979416  0.050012666  -0.38316382   0.21649743   0.48763002  0.050614104  0.050390695  0.049033201 
 3431000   0.39819302  0.048808962  -0.38124289   0.21601677   0.48062375  0.048797242  0.049300494  0.048329151 
 3432000   0.39767321  0.049753137  -0.38375332   0.21272667   0.48245228  0.047076958  0.049975941  0.052206512 
 3433000   0.39868777   0.04679554  -0.38236438   0.21563737   0.46932903  0.048608959  0.048509557  0.043268105 
 3434000   0.40423682  0.052320401  -0.37982311    0.2265018   0.51014527  0.052044199  0.050877297  0.054039708 
 3435000   0.40027171  0.049965345  -0.38164492   0.21873263   0.48960868  0.049655298  0.050228364  0.050012373 
 3436000   0.39988024  0.049770605  -0.38042822   0.21936215   0.48918246  0.049178756  0.050695105  0.049437953 
 3437000    0.4020327  0.051063094  -0.38273083   0.22028807   0.49711532  0.050087712  0.053150317  0.049951254 
 3438000   0.39954884  0.048871262   -0.3841492   0.21514409   0.48008881  0.048659348  0.048332318  0.049622118 
 3439000   0.40237363  0.050793075  -0.37952544   0.22400483   0.49936823  0.052238439  0.049761075   0.05037971 
 3440000   0.40159555  0.051432326   -0.3803777   0.22198551   0.50081447   0.05110299  0.051522675  0.051671313 
 3441000   0.39898841  0.053987941  -0.38079708   0.21765561   0.51033928  0.055638533  0.051846069  0.054479222 
 3442000   0.40053413  0.049762116  -0.38179255    0.2189786   0.48875289  0.046920157  0.051342881   0.05102331 
 3443000   0.40320076  0.049811677  -0.38130188   0.22346902   0.49351199  0.050441881   0.04963047  0.049362679 
 3444000   0.39763298  0.046782509  -0.38318348   0.21323617   0.46685718  0.046727206  0.047706621    0.0459137 
 3445000   0.39769468  0.051056887  -0.37857057   0.21794163   0.49473523  0.050004209  0.050246928  0.052919524 
 3446000   0.39827809  0.051579019  -0.38185593   0.21553132   0.49515555  0.050574946  0.053245813  0.050916296 
 3447000   0.40388391  0.052066073  -0.38086348   0.22493209   0.50719677  0.051243748    0.0522164  0.052738073 
 3448000   0.40451081  0.050742803  -0.38269039   0.22404548   0.49913635  0.051014853  0.049921357    0.0512922 
 3449000   0.39618164  0.047777943  -0.38553953   0.20870322   0.46772075  0.048183239  0.046263637  0.048886954 
 3450000   0.39751305  0.047784302  -0.38517895   0.21106081   0.47011282  0.046249381  0.048068803  0.049034721 
 3451000   0.39935328  0.050430639   -0.3827019   0.21629807   0.48969661  0.048557577  0.049923718  0.052810621 
 3452000    0.3988931  0.048333421  -0.38247685   0.21583288   0.47786181  0.049955399  0.047504898  0.047539964 
 3453000   0.39754605   0.04841365  -0.38496887   0.21132038   0.47378427  0.048215093   0.04916259  0.047863268 
 3454000   0.40522194  0.049402621  -0.38391367   0.22388885   0.49171421  0.046372427  0.050036339  0.051799097 
 3455000   0.40317049  0.049453084  -0.38338257   0.22134293   0.48944187  0.050476754  0.051444436  0.046438062 
 3456000   0.40115861  0.048991778  -0.38282755   0.21888028   0.48447836  0.049179581  0.050108375  0.047687377 
 3457000   0.40132527  0.048949338  -0.38280114   0.21915667   0.48452467  0.047605187    0.0505174  0.048725427 
 3458000   0.40386771  0.050722751  -0.38110865   0.22466263   0.49964479  0.051368416  0.051428677  0.049371159 
 3459000   0.40086222  0.051363379  -0.38298101   0.21828226   0.49673744  0.051199125    0.0533975  0.049493511 
 3460000   0.40012119  0.050446508  -0.38367308    0.2164787   0.48996327  0.049817515  0.051208601  0.050313409 
 3461000   0.40152355  0.050438596  -0.38363459   0.21862062    0.4920623  0.049740011  0.050509786  0.051065992 
 3462000   0.40263079  0.049632531  -0.38363413   0.22028185   0.48935362  0.052159309  0.047280268  0.049458016 
 3463000    0.3999805  0.047507817   -0.3823016   0.21763915   0.47519226  0.048066451  0.047611516  0.046845486 
 3464000   0.39900866  0.047911211  -0.38586361   0.21261946   0.47235948  0.050954741  0.045372817  0.047406076 
 3465000   0.39710184  0.046672892  -0.38529338   0.21032959   0.46335634  0.049229073  0.044427794   0.04636181 
 3466000   0.39700094  0.047541882  -0.38497962   0.21049201    0.4682298  0.048452587  0.048482224  0.045690836 
 3467000   0.39704543  0.048441212  -0.38390091   0.21163745   0.47425076  0.048727295  0.049514364  0.047081977 
 3468000   0.39922786  0.050280506   -0.3825383   0.21627354   0.48885817  0.050972169  0.049901281  0.049968069 
 3469000   0.39907892  0.050014346  -0.38280661   0.21578184   0.48692354  0.051563868  0.049188431   0.04929074 
 3470000   0.39786394  0.048638954  -0.38287239   0.21389369     0.477579  0.050881514  0.047269455  0.047765892 
 3471000   0.40078265   0.04926607  -0.38351053   0.21763338   0.48471846  0.048260599  0.050665685  0.048871924 
 3472000   0.40122928  0.049152793  -0.38606808   0.21574575   0.48221673  0.048953769  0.050417957  0.048086652 
 3473000   0.40244566  0.050387552  -0.38409129   0.21954702   0.49271197  0.050709623  0.048409302  0.052043732 
 3474000    0.4030452  0.049061347  -0.38240398   0.22213359   0.48810881  0.049260686  0.048489401  0.049433954 
 3475000   0.40294635  0.050606867  -0.38466141    0.2197279   0.49408182  0.050986281   0.05027173   0.05056259 
 3476000   0.40018128  0.051303063  -0.38250661    0.2177353   0.49586349  0.050714725  0.049036597  0.054157866 
 3477000   0.39773928   0.04885023  -0.38426826   0.21231083   0.47714153  0.048479668  0.049023751  0.049047271 
 3478000   0.39404519  0.046393767  -0.38689489   0.20414334   0.45565687  0.044260369   0.04692088  0.048000053 
 3479000   0.40277634  0.048826209  -0.38552742   0.21860689   0.48330736  0.050253958  0.049050845  0.047173824 
 3480000   0.40082428  0.049255562  -0.38103833   0.22016803   0.48719615  0.049495625    0.0481751  0.050095962 
 3481000   0.40262969  0.051371661  -0.38373332   0.22018101   0.49868109  0.050331386   0.05149519  0.052288407 
 3482000    0.4013535  0.050041407   -0.3812837   0.22071644   0.49200485  0.050681646   0.05076878  0.048673795 
 3483000   0.39801879  0.050672723  -0.38479005   0.21220829   0.48691924  0.048830529   0.04875736  0.054430282 
 3484000   0.39501329  0.047879204  -0.38358801   0.20890229   0.46846879  0.049161558  0.046957543  0.047518512 
 3485000   0.39994172  0.047824594  -0.38547883   0.21440377   0.47367421  0.047990672  0.049468326  0.046014784 
 3486000   0.39872921  0.047905138  -0.38263634   0.21542758   0.47513468  0.049278857  0.046037044  0.048399513 
 3487000   0.40136676  0.046677042  -0.38632986   0.21569018   0.46873943  0.046603947  0.044569643  0.048857535 
 3488000   0.39698203  0.049144537  -0.38311388   0.21232939   0.47875562  0.050403737    0.0487683  0.048261574 
 3489000   0.39920674  0.050389645  -0.38544035   0.21333983   0.48651612  0.050829971  0.050191751  0.050147212 
 3490000   0.39664886  0.049995734  -0.38233532   0.21260822   0.48364902  0.046922143  0.051786348  0.051278712 
 3491000   0.39787911  0.047782382  -0.38839214   0.20839668   0.46743828  0.048203101  0.047578274  0.047565772 
 3492000   0.39653609  0.049599668  -0.38333347   0.21144093   0.48033455  0.050092641  0.049354326  0.049352038 
 3493000    0.4002673  0.049523865  -0.38376435   0.21660658   0.48508924  0.049897672  0.047999003   0.05067492 
 3494000   0.39996667  0.049927723  -0.38161804   0.21830196   0.48897405  0.049614592  0.049666112  0.050502464 
 3495000   0.40030339  0.050729591  -0.38064853   0.21977653   0.49479577  0.049643037  0.049599019  0.052946717 
 3496000   0.40041679  0.051840887  -0.37602844   0.22456672    0.5056106  0.053936137  0.048446009  0.053140516 
 3497000   0.40535205  0.049620134  -0.37978812   0.22820955   0.49721411  0.048317739  0.051880787  0.048661876 
 3498000   0.40123973  0.052363193  -0.37941602   0.22241348   0.50628893  0.053222461  0.051124461  0.052742659 
 3499000   0.40192895  0.049367024  -0.38039606   0.22246722   0.49009961  0.049135807  0.050566786  0.048398478 
 3500000   0.40084153  0.050833388  -0.38477277   0.21645946   0.49204141  0.050121422  0.050222185  0.052156558 
 3501000   0.39936003  0.049936568  -0.38188532   0.21712478   0.48784482  0.048580135  0.048535583  0.052693985 
 3502000   0.39900222   0.05063749  -0.38490144   0.21357197    0.4880919   0.05160474  0.049222445  0.051085285 
 3503000   0.39910309  0.051550049  -0.38292549   0.21569921   0.49516638  0.050632446   0.05286506   0.05115264 
 3504000   0.39720045   0.05002081   -0.3841671   0.21160378   0.48278053  0.049603854  0.050786625  0.049671952 
 3505000   0.39936358  0.046676735  -0.38331633   0.21569908   0.46874666  0.048364706     0.046081  0.045584499 
 3506000   0.40003028  0.049959795  -0.38411839   0.21589703     0.486743  0.048421552  0.052146832  0.049311002 
 3507000   0.40177604  0.050772741  -0.38126035   0.22137358   0.49662675  0.051009058  0.051506776  0.049802389 
 3508000   0.40343039  0.049206861  -0.38395447   0.22116086   0.48792496  0.050676058  0.048291307  0.048653218 
 3509000   0.40147103  0.050086304  -0.38491526   0.21726117   0.48879297  0.047489304  0.050672829  0.052096779 
 3510000   0.40086616  0.049514941  -0.38329624   0.21797294   0.48640723   0.04942842  0.049217389  0.049899013 
 3511000   0.40192964  0.049624828  -0.38357134   0.21929298   0.48832299  0.050409507  0.050484584  0.047980394 
 3512000   0.40247652  0.048204808  -0.38001441   0.22367018   0.48500187  0.050821574  0.049124119  0.044668731 
 3513000   0.39975853  0.052046176  -0.37806987   0.22153793   0.50369475  0.054129502  0.050801107  0.051207918 
 3514000    0.4007005   0.04879577  -0.37915151   0.22186919   0.48640465  0.049350107  0.049091146  0.047946059 
 3515000   0.39940389  0.049060799  -0.38045533   0.21862055    0.4845928  0.049482646  0.050728376  0.046971375 
 3516000   0.40081782  0.047962813  -0.38559348   0.21560318   0.47562295  0.047372546  0.047819419  0.048696475 
 3517000   0.39843559  0.050076856  -0.38305769   0.21456582    0.4860464  0.050169674  0.051583732  0.048477163 
 3518000   0.39381247  0.047618723  -0.38224489   0.20844428   0.46659864   0.04615715  0.047780002  0.048919017 
 3519000   0.40041173  0.050250432  -0.38176928   0.21881829   0.49123987  0.051128768  0.050445021  0.049177507 
 3520000   0.40284786  0.049945283  -0.38311349   0.22112808   0.49189537  0.049130287  0.048968456  0.051737105 
 3521000    0.4013421  0.049739166  -0.38454985    0.2174332   0.48708307  0.050354974  0.050726445  0.048136079 
 3522000   0.39887421  0.049360731  -0.38285395   0.21542745   0.48302572  0.049793182  0.048937834  0.049351176 
 3523000    0.4030066  0.051580544   -0.3768885   0.22759117   0.50722367   0.05179194  0.052464326  0.050485365 
 3524000   0.40237731  0.050729009  -0.37783551   0.22570028   0.50071637  0.049951209  0.051329256  0.050906561 
 3525000   0.40057916  0.049132777  -0.38034242   0.22049628   0.48685875  0.048224759  0.049700676  0.049472896 
 3526000    0.3984192  0.051300311  -0.37780315   0.21979577   0.49790904  0.052150878  0.052028088  0.049721966 
 3527000   0.40126864  0.050973292    -0.380931   0.22094186   0.49728228  0.049306103   0.05073494  0.052878834 
 3528000   0.40220395  0.049667189  -0.38159604   0.22167972   0.49093938  0.050029572  0.049476527  0.049495467 
 3529000   0.40105374  0.050287275   -0.3819069   0.21964363   0.49226495  0.050874425  0.049928752   0.05005865 
 3530000   0.40183981  0.051873286  -0.38012455   0.22260503   0.50382456  0.051004981  0.053691843  0.050923034 
 3531000   0.40021731  0.048966013  -0.38232312   0.21797284   0.48343123  0.050082867   0.04897193  0.047843241 
 3532000   0.40196583   0.05032751  -0.38227484   0.22064376   0.49348321  0.052058602   0.04911557  0.049808359 
 3533000   0.40206739  0.050105308  -0.38767311   0.21539782   0.48703265  0.048478269  0.051861234   0.04997642 
 3534000   0.40013939  0.048626906  -0.38444193   0.21573715   0.47935715  0.049634536  0.047298564  0.048947616 
 3535000   0.40207445  0.049274159  -0.38530716   0.21777437   0.48490331   0.04865365  0.048747013  0.050421813 
 3536000    0.3980636  0.049534028  -0.38372113   0.21334441   0.48188217  0.050226123  0.050932699  0.047443262 
 3537000   0.39863348  0.050835191  -0.38036564   0.21755469   0.49314642   0.05210599  0.051479166  0.048920417 
 3538000   0.39854763    0.0493807  -0.38189639   0.21589517    0.4836017  0.050596727  0.048936778  0.048608594 
 3539000   0.39984887  0.049991262  -0.38326681   0.21647651   0.48749306   0.05155165  0.050577674  0.047844462 
 3540000   0.39905165  0.050349365  -0.38149518   0.21705236    0.4900103  0.049780651  0.051116574  0.050150871 
 3541000   0.39981465  0.050143186  -0.37929865   0.22039334   0.49223352  0.049086448   0.05263752   0.04870559 
 3542000   0.40181987  0.049033191  -0.37937972   0.22331996   0.48914254  0.049770457  0.047643532  0.049685585 
 3543000   0.40015948  0.050899388  -0.38181055   0.21839866   0.49433842  0.050239306  0.051489987  0.050968871 
 3544000   0.39914302  0.050344265  -0.38027993   0.21840467   0.49133495  0.051319609  0.048671151  0.051042034 
 3545000   0.40253879  0.050146378  -0.38273109   0.22104691   0.49290439  0.051924382  0.050021937  0.048492814 
 3546000   0.40074466  0.048733473  -0.38328751   0.21779943   0.48199716  0.049353233   0.04750454  0.049342645 
 3547000   0.39993994   0.05018825  -0.38120693   0.21867297   0.49075745  0.051982652  0.050281186   0.04830091 
 3548000    0.3991661  0.047550801  -0.38262045   0.21609876    0.4738849  0.046560188  0.049103104  0.046989112 
 3549000   0.40092475  0.047420939  -0.38248376    0.2188733   0.47595542   0.04716348  0.048886782  0.046212556 
 3550000     0.402918  0.049880368  -0.38177919   0.22256759   0.49298296  0.050356271  0.049863713  0.049421119 
 3551000   0.39817025  0.047512349  -0.38152621    0.2156993   0.47327698  0.046524751  0.049269819  0.046742479 
 3552000   0.40074861  0.049728607  -0.38193259   0.21916027    0.4887529  0.050526328   0.05044143  0.048218063 
 3553000   0.40421593  0.051872785  -0.37977542   0.22651816   0.50773497  0.052570459  0.050764652  0.052283244 
 3554000   0.39645316   0.04972903  -0.38438226   0.21026774   0.47986266  0.049550772  0.048038567  0.051597751 
 3555000   0.39813122  0.051084621  -0.38163972   0.21552726   0.49247122  0.051693007  0.051153169  0.050407689 
 3556000   0.39788204  0.050434539  -0.37972825   0.21706496   0.49048465   0.05106794   0.04856035  0.051675327 
 3557000   0.40041147  0.050580939  -0.38493582   0.21565135   0.48986471  0.052633119  0.050369889   0.04873981 
 3558000   0.40172382  0.049186753  -0.38309956   0.21945604   0.48611113   0.04863139  0.050647135  0.048281734 
 3559000   0.40103785  0.050528136  -0.38397477   0.21755193   0.49147904   0.04969597  0.050572941  0.051315498 
 3560000   0.40013721   0.05151352  -0.38204383   0.21813197   0.49740111  0.053589212  0.051904275  0.049047074 
 3561000   0.40318331  0.052660802  -0.38419936   0.22054536   0.50603424  0.052723789  0.053222238  0.052036378 
 3562000   0.40230219  0.049467912  -0.38826525   0.21515786   0.48333719  0.049664835   0.04949292  0.049245982 
 3563000   0.40005551  0.049751542  -0.38360428   0.21644898   0.48616595  0.049152737    0.0486288  0.051473088 
 3564000    0.4003892  0.051548382  -0.38172891   0.21882486     0.498283  0.049895123  0.048438401  0.056311623 
 3565000   0.39775885  0.049307972  -0.37851499   0.21809346   0.48540571  0.050505385  0.048349431  0.049069101 
 3566000   0.40009787  0.050500774  -0.38427907   0.21583773   0.48961649  0.050526765  0.050378088  0.050597468 
 3567000   0.40203692   0.04987787  -0.38457519   0.21845004   0.48885187  0.052091263  0.049521969  0.048020376 
 3568000   0.40141505  0.050359938  -0.38400786   0.21808461   0.49109986  0.049800714  0.053108767  0.048170333 
 3569000   0.39876176  0.049716519  -0.38296774     0.215145    0.4846721  0.048675562  0.050551022  0.049922973 
 3570000   0.39955521  0.049169003  -0.38328855    0.2160143   0.48257316  0.053158637  0.046542777  0.047805594 
 3571000   0.40177732   0.04973984  -0.38683799   0.21579785   0.48545138   0.05103815  0.050903887  0.047277481 
 3572000   0.39981787   0.04926627  -0.38122758   0.21846924   0.48555541  0.048149341  0.049132968  0.050516502 
 3573000   0.40048899  0.050434081  -0.38429219   0.21641126   0.48982846  0.050633544  0.049603368   0.05106533 
 3574000   0.40109604  0.051143083  -0.38374499   0.21786898   0.49512988  0.051360811   0.05197637  0.050092069 
 3575000   0.39971894  0.048308018  -0.38331945   0.21622898   0.47812021  0.047707732  0.049638865  0.047577458 
 3576000   0.39764366  0.049406495  -0.38385245   0.21258321   0.48042958  0.048943907  0.050452764  0.048822813 
 3577000   0.39789873  0.049840685  -0.38871753   0.20810073   0.47830096  0.047737648  0.051817422  0.049966984 
 3578000    0.3971385  0.047419245  -0.38530469   0.21037328   0.46744622   0.04809155  0.047868076  0.046298111 
 3579000   0.40511541  0.050772807  -0.38337469   0.22426804   0.49952157  0.052949729  0.049369729  0.049998962 
 3580000   0.39885476  0.050167537  -0.38388455   0.21436767   0.48633986  0.051704809  0.050603304  0.048194497 
 3581000   0.39786713  0.049793845  -0.38337831   0.21339255   0.48333885  0.050270584  0.049164619  0.049946331 
 3582000   0.39895371  0.050260474  -0.38366054    0.2147401   0.48721612  0.049639827  0.049555664   0.05158593 
 3583000   0.39869424  0.049780667  -0.38090672   0.21710474    0.4869796  0.049731846  0.048963711  0.050646445 
 3584000   0.39910582  0.050243674  -0.38291199   0.21571681   0.48810176  0.051934507  0.048440384   0.05035613 
 3585000   0.39970836  0.048652832  -0.38504461   0.21448795    0.4782485  0.048404149  0.048191769  0.049362576 
 3586000    0.4007138  0.048827997  -0.38201237   0.21902828   0.48373845  0.049400258  0.048578071  0.048505662 
 3587000   0.40080369  0.050589695  -0.38356782   0.21760765   0.49186847  0.051352177  0.048856143  0.051560765 
 3588000   0.40148399  0.050054069  -0.37892693   0.22326894   0.49462599  0.049929666  0.051459981   0.04877256 
 3589000   0.40249756  0.048377258  -0.38198121   0.22173494   0.48400153   0.05111108  0.045316672  0.048704022 
 3590000   0.40485849  0.052320687  -0.38283748   0.22441989   0.50806491  0.053583337  0.051387565  0.051991158 
 3591000   0.40030217  0.049175379  -0.38234813    0.2180751   0.48466853  0.049050444  0.048355146  0.050120548 
 3592000     0.398867  0.049459243  -0.38318797   0.21508262   0.48321495  0.049015527  0.050272453   0.04908975 
 3593000   0.39881248  0.048910721  -0.38269103   0.21549778   0.48065643  0.049688941  0.049427708  0.047615515 
 3594000   0.39912351  0.049438137  -0.38012585   0.21852948   0.48654739  0.050480635  0.048614199  0.049219578 
 3595000   0.39934004  0.050790005  -0.38406149   0.21491862   0.49026538  0.051621918  0.049807988  0.050940108 
 3596000    0.3992293    0.0499485  -0.38152035   0.21729367   0.48807839  0.050249138  0.050885042  0.048711319 
 3597000   0.40181091  0.047540692  -0.38422405   0.21846218   0.47619351  0.046659438  0.047413255  0.048549382 
 3598000   0.39894718  0.051077211  -0.38276637   0.21562447   0.49252825  0.052316238  0.050161074   0.05075432 
 3599000   0.40226624  0.053615884  -0.37903883   0.22433036     0.514997  0.052546662  0.055103163  0.053197827 
 3600000   0.40224889  0.048249633  -0.38328285   0.22006031   0.48163501  0.047392533  0.048738419  0.048617946 
 3601000   0.39946116  0.050548992  -0.37956669    0.2195951   0.49363526  0.049677279  0.050134642  0.051835055 
 3602000   0.40362685  0.051233078  -0.38373679   0.22167322   0.49942201  0.051631327  0.051462454  0.050605453 
 3603000   0.39675986  0.047032814  -0.38332433    0.2117857   0.46676368  0.045640828  0.046316644  0.049140968 
 3604000   0.39596158  0.049406203  -0.38235272   0.21155995   0.47940474  0.050179185  0.049340914  0.048698511 
 3605000   0.39859998  0.047890472  -0.38421744   0.21365264   0.47328023  0.048316673  0.046990213  0.048364531 
 3606000   0.39841749  0.048479678  -0.38289488   0.21470147   0.47752331  0.048028382  0.048353518  0.049057133 
 3607000   0.40201386   0.04895802  -0.38325441   0.21973622   0.48515128  0.049225734  0.048845329  0.048802997 
 3608000    0.4018856  0.048775023  -0.38085686   0.22194139   0.48636437  0.048460471  0.047571879  0.050292718 
 3609000   0.40222385  0.049325618  -0.38356598   0.21973963   0.48714754  0.047878227  0.050678397  0.049420229 
 3610000   0.40063432  0.051809929   -0.3799294   0.22099204    0.5018681  0.054730391  0.049634793  0.051064604 
 3611000   0.40132991  0.046766876  -0.38401297   0.21795179   0.47148805  0.045761482  0.048183507   0.04635564 
 3612000   0.39575284  0.049284886  -0.38294287   0.21065671    0.4778438  0.051775413  0.049420943  0.046658301 
 3613000   0.39671805  0.050390665  -0.38365053   0.21139679   0.48457862  0.050911963  0.048989173   0.05127086 
 3614000   0.39955248  0.049018519  -0.38376866   0.21553009   0.48127314  0.048538612   0.05063765  0.047879295 
 3615000   0.39913806  0.049140096  -0.37989669   0.21878047   0.48518262   0.05058303  0.049035967  0.047801291 
 3616000   0.40168357  0.050984256  -0.37987443    0.2226208   0.49902065   0.05027247  0.049817316  0.052862984 
 3617000   0.40499058  0.050694924  -0.38215385   0.22530164   0.50013294  0.051424001   0.04932913  0.051331642 
 3618000   0.39758359  0.049032912  -0.38500602   0.21133955   0.47716063  0.046796014  0.048540475  0.051762248 
 3619000   0.39953954   0.04936663  -0.38182852   0.21745083   0.48508108  0.048615856  0.049080718  0.050403318 
 3620000   0.39727852  0.048784595  -0.38224786   0.21364012     0.478115  0.049207015  0.050004281  0.047142489 
 3621000   0.39848489  0.047817239  -0.38210742   0.21559003    0.4748206  0.047021151  0.047251035   0.04917953 
 3622000   0.40267523  0.051655091  -0.37850764     0.225475   0.50551164  0.052886765  0.052020853  0.050057656 
 3623000   0.40376208  0.048998266  -0.38375889   0.22185394   0.48748719  0.048497442  0.051369381  0.047127974 
 3624000    0.4024611  0.048343295   -0.3846823   0.21897917   0.48106163  0.048386587  0.047656157   0.04898714 
 3625000   0.40296912  0.048632191  -0.38645981   0.21796365    0.4816123  0.048623205   0.04891453  0.048358837 
 3626000   0.40281343  0.052485571  -0.38307618   0.22111375   0.50565265  0.052514622  0.054129707  0.050812384 
 3627000   0.39602564     0.046909  -0.38336496    0.2106438   0.46495055  0.047541679  0.047949738  0.045235582 
 3628000   0.39864543  0.050844574  -0.38250789   0.21543035   0.49107295  0.052968783  0.051109159  0.048455781 
 3629000    0.3964451  0.049397319  -0.38030768   0.21433024   0.48212686  0.049268166  0.048718211  0.050205579 
 3630000   0.39814755  0.048572377   -0.3805792   0.21661227   0.47993665  0.049951813  0.045616817    0.0501485 
 3631000   0.39579541  0.049789221   -0.3852143   0.20844913   0.47837037  0.050572198  0.050175811  0.048619654 
 3632000   0.39876087  0.048545296   -0.3845047    0.2136067   0.47678427  0.048004326  0.051142563  0.046488998 
 3633000   0.40101774  0.050097093  -0.38574978   0.21574675   0.48733704  0.051062986  0.049670496  0.049557797 
 3634000   0.40217432  0.048402623  -0.37814716   0.22508416   0.48748826  0.049007429  0.047207256  0.048993185 
 3635000   0.40007627  0.049893404  -0.38239731   0.21768709   0.48817313   0.04959038  0.050966598  0.049123236 
 3636000   0.39594806  0.050123948  -0.38112648   0.21276591   0.48450179  0.050083403  0.049997943  0.050290498 
 3637000   0.40231921  0.049557998   -0.3813305   0.22211815   0.49078586  0.049079199  0.050612093  0.048982702 
 3638000   0.39956597  0.049316149  -0.38191207   0.21740692    0.4847635   0.04741713  0.050181466  0.050349852 
 3639000   0.40144501  0.051343105  -0.38110255   0.22103486   0.49938013  0.051028341  0.050581665  0.052419308 
 3640000   0.39589827   0.05041305  -0.38177412   0.21204358   0.48534677  0.050181462  0.050590805  0.050466883 
 3641000   0.39830753  0.049650565  -0.38362501   0.21380641   0.48297595  0.049133871   0.05083454  0.048983282 
 3642000   0.40370065  0.051159193   -0.3816845    0.2238362   0.50118443   0.05268436  0.051970053  0.048823166 
 3643000   0.40188477  0.052010886    -0.377734   0.22506301   0.50702851  0.049868087  0.054340889  0.051823682 
 3644000   0.40262182  0.050171977  -0.38039502   0.22350751   0.49550377   0.05048237  0.051368631  0.048664929 
 3645000   0.40265295   0.05047718  -0.38140082   0.22254841   0.49619926  0.050604125  0.051485951  0.049341465 
 3646000   0.40170108  0.049221619  -0.38560607   0.21691542   0.48375952   0.04984456  0.047989399  0.049830897 
 3647000   0.39898778  0.049564548  -0.38553673   0.21291502   0.48161824  0.049488807  0.048542963  0.050661874 
 3648000   0.39978072  0.048147652  -0.38324067   0.21640042   0.47742226  0.046923172  0.047938301  0.049581484 
 3649000   0.40042287  0.049008424  -0.38401737    0.2165869   0.48227522  0.051423174   0.04785451  0.047747589 
 3650000   0.40194716  0.047816749  -0.38636223   0.21652836   0.47575628  0.046585067  0.049915838  0.046949344 
 3651000   0.40001458  0.050611899  -0.38578672   0.21420514   0.48858634  0.048948537  0.050645638  0.052241522 
 3652000    0.4018496  0.050159462  -0.38323453   0.21950973   0.49143814  0.049831727  0.050534503  0.050112155 
 3653000   0.40154826  0.049218776   -0.3853906   0.21690167   0.48373037  0.051224271  0.047368425  0.049063633 
 3654000   0.39955669  0.050764305   -0.3804952   0.21880986    0.4940173  0.049801467  0.050930926  0.051560522 
 3655000   0.40071417  0.050670551  -0.38070334   0.22033786   0.49503703  0.051344994  0.051296353  0.049370307 
 3656000   0.39882787   0.05041225    -0.379408   0.21880389   0.49210274  0.049269804  0.050362732  0.051604213 
 3657000   0.39724568  0.048815166  -0.38240808   0.21343065   0.47807126  0.047729692   0.04777794  0.050937866 
 3658000    0.3970772  0.048768154  -0.38200772    0.2135783   0.47796405  0.047900826  0.049630584  0.048773053 
 3659000   0.39697407  0.046887045  -0.38266389   0.21276744   0.46695518  0.046220525   0.04691173  0.047528882 
 3660000   0.40427276  0.049826148  -0.38405782   0.22232099   0.49244242  0.051929571  0.049493683  0.048055189 
 3661000   0.40285443  0.048661591  -0.38205405   0.22219738   0.48600541  0.048062742  0.048833119  0.049088911 
 3662000   0.40330523  0.049856194  -0.38344925   0.22147835   0.49176266  0.049742436  0.049258518  0.050567627 
 3663000   0.40505266  0.052186394  -0.38195695   0.22559167   0.50850865  0.051620528  0.051301048  0.053637606 
 3664000   0.39840971  0.050314168  -0.38210298   0.21548171   0.48824883  0.051365196  0.050013326  0.049563982 
 3665000   0.39856083  0.052159355  -0.38188484   0.21592651    0.4986969  0.052949662  0.049916611  0.053611791 
 3666000   0.39736544   0.05115856  -0.38381813   0.21220023   0.48954503  0.050374358  0.051923125  0.051178196 
 3667000    0.3964883  0.048529385  -0.38338595   0.21131676   0.47440808  0.049104798  0.047847255  0.048636104 
 3668000   0.40043031  0.047960274  -0.38526237   0.21535306   0.47535907  0.045555056  0.048168869  0.050156896 
 3669000   0.39733035  0.047968287  -0.38297781   0.21298791   0.47303735   0.04675536  0.048997193  0.048152307 
 3670000   0.40089094  0.048834956  -0.37870463   0.22260172   0.48734962  0.047287007  0.050643645  0.048574216 
 3671000   0.40380072  0.050369282  -0.38249362   0.22317717   0.49624308  0.051803893  0.048940849  0.050363106 
 3672000   0.39803929  0.050606227  -0.37983403   0.21719505   0.49154551  0.051798992  0.048764035  0.051255654 
 3673000   0.39847201  0.049203783  -0.38366531   0.21401282   0.48076023  0.048216074  0.049433862  0.049961413 
 3674000   0.40170458  0.049762211  -0.38201743   0.22050931   0.49028412  0.049463881  0.049043378  0.050779375 
 3675000   0.40310605  0.051953655  -0.38169126   0.22293758   0.50459282  0.051691325  0.054026383  0.050143256 
 3676000   0.40290877  0.051145248  -0.38255779   0.22177514   0.49904778  0.053185002   0.04887911  0.051371632 
 3677000   0.40031137  0.049846721  -0.38271175   0.21772527   0.48795823  0.049153371  0.050516875  0.049869917 
 3678000   0.39614441  0.047978976  -0.38508236   0.20910455   0.46921195  0.049795838  0.048460538  0.045680552 
 3679000    0.3966223  0.048091346  -0.38379433   0.21110937   0.47182595  0.047763125  0.048216803   0.04829411 
 3680000   0.39522559  0.049644772   -0.3840529   0.20875585   0.47789398  0.050913629  0.050170475  0.047850211 
 3681000   0.39855118  0.050335147  -0.38167188   0.21612499   0.48900584  0.048474846  0.052158264   0.05037233 
 3682000   0.40235933  0.051155418  -0.38067166   0.22283716   0.50016493   0.04925198  0.054667059  0.049547215 
 3683000   0.40076642  0.049783198   -0.3847191   0.21640047   0.48628905  0.048336951  0.048530326  0.052482318 
 3684000   0.39973545  0.051724635  -0.38166576   0.21790744   0.49832109  0.053484323  0.050754729  0.050934852 
 3685000   0.40034374  0.050488325  -0.38169968    0.2187859   0.49249718  0.050165945  0.050182205  0.051116826 
 3686000   0.40353693  0.049317795  -0.38224556   0.22302958   0.49039508  0.049720421  0.047538529  0.050694435 
 3687000   0.39980834  0.050139815  -0.37842317   0.22125935   0.49308125  0.049750971  0.051681618  0.048986857 
 3688000   0.39748319   0.04763555  -0.38472589   0.21146909   0.46971467  0.048709728  0.045047569  0.049149354 
 3689000   0.39773699  0.049033494  -0.38299202   0.21358363   0.47940786  0.049758198  0.048422711  0.048919572 
 3690000   0.39938491  0.050302087  -0.38583915   0.21320827   0.48590989  0.049305974  0.049845951  0.051754336 
 3691000   0.39810668  0.049795159  -0.38351834   0.21361183   0.48356525  0.049422898  0.049677383  0.050285196 
 3692000   0.39621494  0.048943593  -0.38110572   0.21318697   0.47852382  0.049596869  0.048505134  0.048728776 
 3693000   0.40147278  0.050020272  -0.38111621   0.22106285   0.49223668  0.049709274  0.050246656  0.050104886 
 3694000   0.39951394  0.050709315  -0.38158288   0.21765807   0.49256739  0.054680548  0.050175551  0.047271845 
[...]
 3841000   0.40298504  0.051563573  -0.38287223   0.22157511    0.5011156    0.0521484  0.051717355  0.050824966 
 3842000   0.40033246  0.049136501  -0.38213407    0.2183346   0.48471726  0.048219661  0.049167011  0.050022831 
 3843000   0.39783647   0.04967575  -0.38344769   0.21327718   0.48258325   0.04971771  0.050389247  0.048920291 
 3844000     0.400362   0.05013497  -0.38492273   0.21559025   0.48738589  0.050688367  0.047919727  0.051796817 
 3845000   0.40292979  0.051713451  -0.38472541   0.21963906   0.49999208  0.054679376   0.05141107  0.049049908 
 3846000   0.40085485  0.049407283   -0.3836184    0.2176338   0.48548444  0.049403143  0.049082184  0.049736522 
 3847000   0.40028827  0.049027149  -0.38208679    0.2183156   0.48410543  0.045562646  0.050085758  0.051433044 
 3848000   0.40052149  0.048810893  -0.38720382   0.21354838   0.47816582  0.048108713  0.048681875  0.049642091 
 3849000   0.40562791  0.049448908  -0.38445894    0.2239525    0.4920288  0.045677934  0.049684135  0.052984654 
 3850000   0.40199328  0.050091669  -0.38260585   0.22035391    0.4919148   0.05012445  0.050318973  0.049831582 
 3851000   0.39515489  0.048759033  -0.38141515   0.21128755   0.47562385  0.049471433  0.048023368  0.048782299 
 3852000   0.39760805  0.049055192   -0.3837677   0.21261455   0.47855641  0.048365873  0.049790801  0.049008904 
 3853000   0.39522862  0.047196026  -0.38274714   0.21006616   0.46592896   0.04849672  0.046565018   0.04652634 
 3854000    0.4006342  0.047806723   -0.3836983   0.21722296   0.47639652  0.046129314  0.049184678  0.048106177 
 3855000   0.40077986  0.049306508  -0.38351089   0.21762884   0.48493315  0.049102752  0.050298882   0.04851789 
 3856000   0.40195446  0.049461423  -0.38172315   0.22117839   0.48932254  0.050786665   0.04819334  0.049404265 
 3857000   0.40311306   0.04677045  -0.38220214   0.22243721   0.47599284  0.048197637  0.046396298  0.045717414 
 3858000   0.40003016  0.049668517  -0.38279684   0.21721839   0.48648526  0.049159961  0.051464936  0.048380655 
 3859000   0.39539025  0.049335857  -0.38606018   0.20699554   0.47445896   0.04941947  0.048082167  0.050505933 
 3860000   0.39794707  0.050442088  -0.37948914   0.21740163   0.49086224  0.050336344  0.051467003  0.049522919 
 3861000   0.39927999  0.047767742  -0.38365522   0.21523482   0.47419705  0.049161065  0.048242682  0.045899477 
 3862000   0.39876426   0.04740036  -0.38477167   0.21334481   0.47031536  0.046671063  0.047376887  0.048153131 
 3863000   0.39783093  0.049268372  -0.38244459   0.21427197   0.48136953  0.049193072  0.047101095  0.051510949 
 3864000   0.39678908   0.04813809  -0.38537833   0.20977553   0.47074552  0.046124461  0.047923605  0.050366203 
 3865000   0.40157515  0.049245491   -0.3866199    0.2157127   0.48268623  0.048965175  0.049485394  0.049285906 
 3866000   0.40072166  0.050210655  -0.38244613   0.21860632   0.49081226  0.052612115  0.048949778  0.049070072 
 3867000   0.39980244  0.051253551  -0.38220221   0.21747146   0.49533124  0.050282931  0.053688581  0.049789141 
 3868000   0.39603712  0.047953673  -0.38027314   0.21375284   0.47372306  0.049862656  0.047144788  0.046853576 
 3869000   0.39973537  0.049129155  -0.38481326   0.21475981   0.48110264   0.04835291  0.048448645  0.050585909 
 3870000   0.39972178  0.046560071    -0.385708   0.21384469    0.4662598  0.046226387  0.045645553  0.047808272 
 3871000   0.40317619  0.047794962  -0.38018895   0.22454509   0.48365489  0.048446248  0.047676132  0.047262506 
 3872000   0.39982433  0.049733138  -0.38309721    0.2166093    0.4862265  0.049693754  0.049485373  0.050020288 
 3873000   0.40305265  0.050122635  -0.38221762   0.22233113   0.49405989  0.050315201  0.049496654  0.050556051 
 3874000   0.40209518  0.048482447  -0.38116622   0.22194639   0.48478324  0.049162791  0.048340021  0.047944529 
 3875000   0.40214606  0.049685445  -0.38166841   0.22152052   0.49087915  0.047390316  0.051713424  0.049952595 
 3876000   0.39918663   0.05111868  -0.38327339   0.21547661   0.49260521   0.05412015  0.047979634  0.051256255 
 3877000   0.40277593  0.049640318  -0.38161703   0.22251666   0.49163065  0.050747723  0.049831008  0.048342223 
 3878000   0.39997594  0.049516077  -0.38214617   0.21778773   0.48622818  0.049832092  0.050444273  0.048271867 
 3879000   0.39924401  0.048224502  -0.38487413   0.21396193   0.47540039  0.048901293  0.046377882  0.049394331 
 3880000   0.40100622  0.052838587  -0.38485698   0.21662228   0.50307498  0.053169485  0.053763855   0.05158242 
 3881000   0.40116145   0.04922054  -0.38539235   0.21631974   0.48315799  0.050739186  0.047282278  0.049640157 
 3882000   0.40138894  0.050743503  -0.38413333   0.21791998   0.49301464  0.051365174  0.051238671  0.049626664 
 3883000    0.3984698  0.049283426  -0.38012287   0.21755195   0.48473112  0.046216683  0.051450482  0.050183113 
 3884000   0.40118428   0.05222319  -0.38302533     0.218721   0.50183746  0.050418275  0.051267794    0.0549835 
 3885000   0.39943588  0.048620387  -0.38045425   0.21866962   0.48225428  0.047685858  0.051105302  0.047070002 
 3886000   0.39926075   0.04758179  -0.37954373   0.21931744   0.47727158  0.045813449  0.047389129  0.049542791 
 3887000   0.40158661  0.050134624  -0.38246805   0.21988175   0.49167551  0.049685625  0.049782815  0.050935432 
 3888000   0.40198979  0.050410762   -0.3796597   0.22329483   0.49658561  0.050883482   0.04895863  0.051390175 
 3889000   0.40090816  0.050800795  -0.38016403   0.22116814    0.4965734  0.051404682  0.051206882  0.049790821 
 3890000   0.39841803  0.049188353  -0.38270325   0.21489391   0.48155767    0.0493274    0.0469685  0.051269159 
 3891000    0.3996915  0.049397824  -0.38375769   0.21574958   0.48354895  0.047551953  0.050802956  0.049838565 
 3892000   0.39823148   0.05013796  -0.38083192   0.21648544   0.48829728  0.049412223   0.05172679  0.049274866 
 3893000   0.39821143  0.049474971  -0.38102505   0.21626223   0.48447982  0.048799038  0.049004578  0.050621296 
 3894000   0.39849854  0.049277983  -0.38342399   0.21429393    0.4814436   0.05103512  0.047190927  0.049607903 
 3895000   0.40261746  0.049650376  -0.38536341   0.21853257   0.48770109  0.048998025  0.050827839  0.049125264 
 3896000   0.40023951  0.048305638  -0.38569202   0.21463723   0.47651555  0.047851255  0.047676333  0.049389325 
 3897000   0.40193906  0.050262281   -0.3805516   0.22232684   0.49481266  0.049532316  0.051199776  0.050054749 
 3898000   0.40176652  0.047842324  -0.38289333   0.21972632   0.47909288  0.048767261   0.04748022  0.047279491 
 3899000   0.40300871  0.052422838  -0.38286406   0.22161878   0.50581759  0.052075093  0.053014871   0.05217855 
 3900000   0.40011548  0.049976469  -0.38241784   0.21772538   0.48866174  0.048250486  0.050299796  0.051379124 
 3901000   0.39920797  0.050447832  -0.38419402     0.214588   0.48807975  0.048888913  0.053174932  0.049279652 
 3902000   0.40265268     0.051629   -0.3824216   0.22152721    0.5014224  0.052729047  0.050665604   0.05149235 
 3903000   0.40347145  0.051609122  -0.37800773   0.22716918   0.50695661  0.051855263  0.051454394  0.051517709 
 3904000    0.3959192   0.04865689  -0.38192962   0.21191949   0.47570204  0.047315048  0.050744434  0.047911188 
 3905000   0.39938411  0.049321262  -0.38013795   0.21890826   0.48629256  0.049245109  0.048508781  0.050209897 
 3906000   0.39871658  0.047825008   -0.3833812   0.21466377   0.47393646  0.046490767  0.046174104  0.050810154 
 3907000   0.39947093  0.050933798  -0.37973135   0.21944507   0.49557138  0.048416399  0.054030152  0.050354843 
 3908000   0.39709418  0.046967867  -0.38361464   0.21199686   0.46662275  0.048751405  0.045075957   0.04707624 
 3909000   0.39880986  0.052800268  -0.38015491   0.21802998   0.50427493  0.053331175  0.054525461  0.050544168 
 3910000   0.40097791   0.05092877  -0.38020434   0.22123245    0.4973315  0.053053567  0.050496958  0.049235785 
 3911000   0.40278238  0.051358326  -0.38079346    0.2233499   0.50177768  0.050832884  0.050842081  0.052400012 
 3912000   0.40017992  0.048320156  -0.38068618   0.21955368   0.48151071  0.048107553  0.049789154  0.047063761 
 3913000   0.40245012  0.049614795  -0.37918478   0.22446022   0.49343584  0.050635541  0.050386115   0.04782273 
 3914000   0.40145189  0.050157943  -0.38179665   0.22035108   0.49227126  0.049610871  0.049301305  0.051561654 
 3915000   0.40002923  0.050320567  -0.38057797   0.21943587   0.49223768  0.050227176  0.049735367  0.050999158 
 3916000   0.39886143  0.051472777  -0.37913886   0.21912338   0.49817164  0.048832374  0.051683268  0.053902688 
 3917000   0.40100766  0.050789801  -0.37897556   0.22250586   0.49785152  0.050965542  0.050681692  0.050722169 
 3918000   0.40253093  0.051418609   -0.3815211    0.2222451    0.5009997  0.049617496  0.051466638  0.053171692 
 3919000   0.40732769  0.050205672  -0.38255477   0.22840622   0.50058515  0.050103176  0.052319763  0.048194077 
 3920000   0.39835348  0.048834884  -0.37976391   0.21773644   0.48248395   0.05104183  0.048334522    0.0471283 
 3921000   0.40013098  0.048265396   -0.3789423   0.22122417   0.48288432  0.050145553  0.047345796  0.047304838 
 3922000   0.39659098  0.048139597  -0.38147193    0.2133848   0.47436296  0.047135292  0.047980504  0.049302993 
 3923000   0.39826567  0.050061449  -0.38251487   0.21485376   0.48625082  0.049964842  0.050047043  0.050172462 
 3924000   0.40071945  0.050564705  -0.38007514   0.22097398   0.49509933  0.050382154   0.05108912   0.05022284 
 3925000   0.40212365  0.049815735  -0.38541703   0.21773829   0.48780326  0.050297477  0.048091427    0.0510583 
 3926000   0.39934005  0.050155607  -0.38311767   0.21586245   0.48776997  0.050470705  0.049266796  0.050729321 
 3927000   0.40232991  0.050166626  -0.38216997   0.22129471   0.49326197  0.052310066  0.049982779  0.048207035 
 3928000   0.40064371  0.050524668   -0.3840393   0.21689622   0.49080451   0.04851426  0.051975148  0.051084595 
 3929000   0.39784363  0.049785351  -0.38259216   0.21414345    0.4840437  0.052241833  0.050216299   0.04689792 
 3930000   0.40204791  0.049975956  -0.38018709   0.22285461   0.49378819  0.047921872  0.051073144  0.050932852 
 3931000   0.40322364  0.053684068  -0.38347832   0.22132689   0.51236317   0.05328719  0.054976357  0.052788656 
 3932000   0.39765683  0.050235825   -0.3840294   0.21242601   0.48476841  0.049457576  0.049417827  0.051832071 
 3933000    0.3983809  0.048711832  -0.38245551   0.21508596   0.47916637  0.049989459   0.04845965  0.047686388 
 3934000   0.39710519  0.047691283  -0.38044158   0.21518642   0.47373415  0.045651831  0.048432328  0.048989689 
 3935000   0.39828194  0.048773948  -0.38411983    0.2132732   0.47769036  0.048818079  0.050601466  0.046902299 
 3936000   0.40076025   0.04888468  -0.38361518   0.21749514    0.4825126     0.050438    0.0473817   0.04883434 
 3937000   0.40134729   0.04816664  -0.38209128   0.21989956   0.48102433  0.047304601  0.050151335  0.047043985 
 3938000   0.39984345  0.050112486  -0.38422814   0.21550704   0.48718079  0.049178519  0.048166015  0.052992926 
 3939000   0.39699605  0.048645766  -0.38166165   0.21380266    0.4775249   0.04984531  0.049232987     0.046859 
 3940000   0.39497875  0.048235146  -0.38637803   0.20606047   0.46755663  0.046411781  0.049396579  0.048897077 
 3941000   0.39625967  0.049383782  -0.38523711   0.20912268   0.47684592  0.049167605  0.048877398  0.050106344 
 3942000   0.39577523  0.047853953  -0.38725003   0.20638313   0.46581273  0.047500058  0.049610332  0.046451469 
 3943000   0.39890581  0.048665024  -0.38502425   0.21330455    0.4771312  0.047553075  0.048251811  0.050190186 
 3944000   0.40051687  0.048178564  -0.38533097    0.2154143   0.47660371  0.044904641  0.048669993  0.050961058 
 3945000    0.4010967  0.049529713   -0.3845207   0.21709426   0.48560863   0.04816675  0.048555798  0.051866591 
 3946000   0.40037736  0.050100029  -0.38085724   0.21967877   0.49128498  0.052047049  0.048995431  0.049257608 
 3947000   0.40185274  0.051985574  -0.37883362   0.22391535   0.50574362  0.051535263  0.050798423  0.053623038 
 3948000   0.40154225   0.04948442  -0.38359327   0.21868999   0.48695881  0.049638324  0.049916984   0.04889795 
 3949000    0.3988931  0.048538815  -0.38372782   0.21458192   0.47772435  0.050653381  0.047549881  0.047413184 
 3950000   0.39748545   0.05211716   -0.3839447   0.21225367   0.49479531  0.053390261  0.050759153  0.052202067 
 3951000     0.396146  0.049466315  -0.38172018   0.21246911   0.48063979  0.048483234  0.048471238  0.051444474 
 3952000   0.39935512  0.048822378   -0.3831723   0.21583042   0.48051013  0.047872186  0.048257617  0.050337331 
 3953000   0.39904312  0.050783068  -0.38177447   0.21676029   0.49206945  0.049807516  0.050361919  0.052179771 
 3954000   0.40144631   0.04844108  -0.38193846    0.2202009   0.48281348  0.047510527  0.048904345  0.048908368 
 3955000   0.40356437  0.050315452  -0.37984528     0.225471   0.49824508  0.050797364   0.04987914  0.050269853 
 3956000   0.40025941  0.051600365  -0.38074629   0.21961281   0.49935276  0.052356968  0.050030569  0.052413559 
 3957000   0.40179083  0.050990264  -0.38408831    0.2185678   0.49500023  0.051448322  0.050122074  0.051400395 
 3958000   0.39784775  0.050490972   -0.3825195   0.21422228    0.4879479  0.051908418  0.050325491  0.049239006 
 3959000   0.39955912   0.05253938  -0.37917705   0.22013166   0.50496227  0.053080751  0.051413531  0.053123859 
 3960000   0.40148678  0.049738892  -0.38264382   0.21955623   0.48920462  0.049143758  0.050676097  0.049396823 
 3961000    0.3992457   0.05088049  -0.37984109   0.21899751   0.49483482  0.050866973  0.050696215  0.051078283 
 3962000   0.40405602  0.049547927  -0.38439691   0.22165683   0.49026994  0.052470059  0.047770209  0.048403514 
 3963000   0.40613492  0.049007155  -0.38313987   0.22603205   0.49171348  0.049098782  0.048317749  0.049604933 
 3964000   0.39924597  0.048840711  -0.38017775   0.21866126   0.48344036  0.050421827  0.049627617   0.04647269 
 3965000   0.39855983   0.04936068  -0.38205126   0.21575859   0.48335659  0.051982199  0.047819519  0.048280322 
 3966000   0.39947021  0.049239506  -0.38260998   0.21656538   0.48350645  0.049114229  0.047158061  0.051446229 
 3967000   0.39771163  0.049403206  -0.37793506   0.21860255   0.48643109  0.050416712   0.05146771  0.046325196 
 3968000   0.40157745  0.050264488  -0.38293413   0.21940193   0.49189971  0.048463755  0.051071679  0.051258028 
 3969000   0.40211818  0.050717738  -0.38437419   0.21877291    0.4937279  0.050517769  0.050583541  0.051051903 
 3970000   0.40007767  0.048908844  -0.38382231    0.2162642   0.48141266  0.049151436  0.049395843  0.048179251 
 3971000   0.39958554  0.049762375  -0.38355081   0.21579753   0.48557323  0.049997592  0.049572618  0.049716915 
 3972000   0.40114944  0.049402481  -0.38292639   0.21876768   0.48659229  0.048654478   0.04909583  0.050457136 
 3973000    0.4011886   0.04857858  -0.38358762    0.2181652   0.48152321  0.049468121  0.050069172  0.046198446 
 3974000   0.39785038  0.050672919  -0.38287741   0.21386833   0.48858033  0.049660184  0.050924351  0.051434221 
 3975000   0.39694086  0.046786502  -0.38580862    0.2095729   0.46321556  0.044839956  0.046151151    0.0493684 
 3976000   0.40101467  0.047221141  -0.38565563    0.2158363   0.47183526  0.048704353  0.045734836  0.047224235 
 3977000   0.40135927  0.049636836  -0.38419269   0.21781612   0.48691124  0.049903622  0.050896959  0.048109927 
 3978000   0.39834629  0.049740883  -0.38524704   0.21224252    0.4819017  0.050261768  0.049303834  0.049657047 
 3979000   0.40083976  0.051350509  -0.38782993   0.21339965   0.49178506   0.05223029  0.050424346  0.051396891 
 3980000    0.4014933  0.045717461  -0.38661983   0.21559001    0.4634371  0.043531066  0.045863524  0.047757792 
 3981000   0.40208853  0.048967632  -0.38417351   0.21892914   0.48439631  0.050572259  0.048052982  0.048277656 
 3982000   0.40032994  0.049310402  -0.38060133   0.21986356   0.48718898   0.04947835  0.049251626  0.049201232 
 3983000   0.40539128  0.048931607  -0.38745011    0.2206064   0.48587827   0.04889825  0.048802869    0.0490937 
 3984000   0.40244504  0.051067707  -0.38151327    0.2221241   0.49897637  0.051010184  0.050768556  0.051424381 
 3985000   0.40010118  0.050078785  -0.38160976     0.218512   0.49000304  0.049997626  0.050362499  0.049876228 
 3986000   0.40314863  0.050045929  -0.38212626   0.22256646   0.49387938  0.051954237  0.048564161  0.049619389 
 3987000    0.4007127  0.051389691  -0.38215661   0.21888239   0.49748022  0.053711513   0.05102972  0.049427841 
 3988000   0.39941468  0.049405106  -0.38238201   0.21671005   0.48454889  0.050494528  0.047639801  0.050080988 
 3989000   0.39795308  0.048541495  -0.38377068   0.21312909   0.47628605  0.049782811  0.047563636  0.048278039 
 3990000   0.39943421  0.050342781    -0.381566   0.21755536    0.4904776  0.050141673  0.050578909   0.05030776 
 3991000   0.40230957  0.048343542  -0.38441597   0.21901821   0.48110202  0.049763505  0.049654753  0.045612367 
 3992000    0.3987796  0.048984949   -0.3806586   0.21748089   0.48304194  0.049903705  0.048586619  0.048464524 
 3993000   0.40088649  0.050413849  -0.38149072   0.21980894   0.49311646  0.049878266  0.050211351   0.05115193 
 3994000   0.39988296   0.04957184  -0.38121078   0.21858367   0.48732642  0.047769822  0.050462021  0.050483677 
 3995000   0.39959402  0.049872717  -0.38420598   0.21515508   0.48552897  0.049754764  0.049012349   0.05085104 
 3996000   0.39802481  0.052926696  -0.38048816    0.2165192   0.50344956  0.052093139  0.052658128  0.054028823 
 3997000   0.39556397  0.049942172  -0.38284012   0.21047616   0.48122659   0.04988367  0.049183352  0.050759493 
 3998000   0.39615311  0.049097131  -0.37899145    0.2152085   0.48137772  0.049891407  0.046672573  0.050727412 
 3999000   0.40009732  0.048041334  -0.38248542   0.21763056   0.47807601  0.050146179  0.046588315  0.047389509 
 4000000    0.4019035  0.049191246  -0.38345341    0.2193717   0.48605114  0.050044167   0.04867552   0.04885405 
Loop time of 3628.28 on 1 procs for 1000000 steps with 20000 atoms

Performance: 119064.575 tau/day, 275.612 timesteps/s
99.9% CPU use with 1 MPI tasks x 1 OpenMP threads

MPI task timing breakdown:
Section |  min time  |  avg time  |  max time  |%varavg| %total
---------------------------------------------------------------
Pair    | 2187.6     | 2187.6     | 2187.6     |   0.0 | 60.29
Neigh   | 1061.8     | 1061.8     | 1061.8     |   0.0 | 29.26
Comm    | 73.129     | 73.129     | 73.129     |   0.0 |  2.02
Output  | 25.089     | 25.089     | 25.089     |   0.0 |  0.69
Modify  | 243.08     | 243.08     | 243.08     |   0.0 |  6.70
Other   |            | 37.61      |            |       |  1.04

Nlocal:    20000 ave 20000 max 20000 min
Histogram: 1 0 0 0 0 0 0 0 0 0
Nghost:    9022 ave 9022 max 9022 min
Histogram: 1 0 0 0 0 0 0 0 0 0
Neighs:    177256 ave 177256 max 177256 min
Histogram: 1 0 0 0 0 0 0 0 0 0

Total # of neighbors = 177256
Ave neighs/atom = 8.8628
Neighbor list builds = 96902
Dangerous builds = 65569

write_restart 	out.restart.sys.final.${temp}
write_restart 	out.restart.sys.final.0.4
unfix intg
unfix ploadx
undump  trj
uncompute denprof
unfix   denprof

next    t
jump    SELF temperatureloop
variable t loop 10
variable  temp  equal 0.1+($t-1)*0.1
variable  temp  equal 0.1+(5-1)*0.1

#OUTPUT
# density profile
compute denprof all chunk/atom bin/1d x center ${xbin}
compute denprof all chunk/atom bin/1d x center 0.05
fix     denprof all ave/chunk 100 1000 500000 denprof density/number file out.profile.density.${temp}.data
fix     denprof all ave/chunk 100 1000 500000 denprof density/number file out.profile.density.0.5.data

#OUTPUT
log   log.lammps.${temp}
log   log.lammps.0.5
