thermo 1000
thermo_style custom step temp press pe etotal enthalpy pxx pyy pzz
dump 		trj all atom 500 out.sys_nvt.${temp}.lammpstrj
dump 		trj all atom 500 out.sys_nvt.0.7.lammpstrj
restart 100000 out.restart1.${temp} out.restart2.${temp}
restart 100000 out.restart1.0.7 out.restart2.${temp}
restart 100000 out.restart1.0.7 out.restart2.0.7

fix ploadx all balance 10000 1.05 shift x 20 1.05
fix intg all nvt temp ${temp} ${temp} ${tdump}
fix intg all nvt temp 0.7 ${temp} ${tdump}
fix intg all nvt temp 0.7 0.7 ${tdump}
fix intg all nvt temp 0.7 0.7 1
run ${Nrun}
run 1000000
Per MPI rank memory allocation (min/avg/max) = 12.56 | 12.56 | 12.56 Mbytes
Step Temp Press PotEng TotEng Enthalpy Pxx Pyy Pzz 
 6000000   0.60509339    0.1022576  -0.33233055   0.57526415    1.1296311   0.10212196   0.10271698   0.10193387 
 6001000   0.70731871   0.13041183  -0.31760536   0.74331966    1.4503185   0.13049455   0.13045802   0.13028293 
 6002000    0.6987351   0.12903717  -0.31791709   0.73013314    1.4296796   0.13057012   0.13093017   0.12561121 
 6003000   0.69722378   0.12601811   -0.3174744   0.72830898    1.4114883   0.12409211   0.12983016   0.12413206 
 6004000   0.69557408   0.12731921  -0.31388669   0.72942226    1.4196551     0.128292   0.12555559   0.12811003 
 6005000   0.69714335   0.12583168  -0.31696691   0.72869583    1.4108644   0.12652949   0.12302623   0.12793933 
 6006000   0.69778584   0.12849421   -0.3162076   0.73041882    1.4270217   0.12843746   0.12738737   0.12965778 
 6007000   0.69836021   0.13020713  -0.31318028   0.73430766    1.4401968    0.1317244   0.12707894   0.13181805 
 6008000   0.70158999   0.12874644  -0.31655844   0.73577393    1.4337442   0.12830637    0.1290778   0.12885516 
 6009000   0.70208163   0.12776634  -0.31785512   0.73521468    1.4278716   0.12589577   0.12997849   0.12742477 
 6010000    0.6994829   0.12984587  -0.31624611   0.73292578    1.4368564   0.12944345   0.12992148   0.13017267 
 6011000   0.69417063   0.12970726  -0.31442348   0.72678041    1.4299596   0.12922126   0.12949756   0.13040296 
 6012000   0.70067567   0.12757671  -0.31836287   0.73259809     1.424227   0.12455951   0.12970375   0.12846687 
 6013000   0.69574916    0.1298618  -0.31582996   0.72774161    1.4317586   0.13036242   0.12935037   0.12987261 
 6014000   0.69131742   0.12723293  -0.31874446   0.71817981     1.407945   0.12575137   0.12703776   0.12890967 
 6015000   0.69308024   0.12778425   -0.3169918   0.72257657    1.4153306   0.12948795   0.12724511    0.1266197 
 6016000   0.70004768     0.126628  -0.32103136   0.72898765    1.4154733   0.12812835   0.12453508   0.12722056 
 6017000   0.69890093   0.12931761  -0.31855817   0.72974081    1.4308076    0.1304424   0.12705035   0.13046008 
 6018000   0.70148249   0.13069182  -0.31608196   0.73608916    1.4446059   0.13177697   0.12853085   0.13176764 
 6019000   0.70699085   0.12729648  -0.31882109   0.74161216    1.4317218   0.12758227   0.12818467   0.12612249 
 6020000   0.70960615   0.12796491  -0.32157238   0.74278362     1.436517   0.12791763   0.12761911   0.12835798 
 6021000   0.70846608   0.12825121  -0.31759343   0.74505256    1.4403381    0.1283782   0.12582018   0.13055525 
 6022000   0.70176507   0.12840924  -0.31858728   0.73400769    1.4301499    0.1261627   0.12899006   0.13007495 
 6023000   0.70099222   0.12919599  -0.31524236    0.7361934    1.4366009   0.12820327   0.13036833   0.12901638 
 6024000   0.69910355   0.12982622  -0.31678335   0.73181954    1.4356436   0.13102725   0.13047591   0.12797551 
 6025000   0.70842381   0.13089674  -0.31492404   0.74765854    1.4572862   0.13105194   0.12985762   0.13178067 
 6026000   0.70443548   0.12841289  -0.31662636   0.73997403    1.4361361   0.12900789   0.12906745   0.12716335 
 6027000   0.69929951   0.13077749  -0.31697101    0.7319258     1.440907   0.13156802   0.13291493   0.12784951 
 6028000     0.699069     0.126084  -0.31822521   0.73032587    1.4138623   0.12314726   0.12598988   0.12911485 
 6029000   0.69592493   0.12493677  -0.31865451    0.7251807    1.4024977    0.1234464   0.12440292   0.12696099 
 6030000   0.69106402   0.12576439  -0.31535164   0.72119257    1.4029964   0.12654643   0.12142057   0.12932617 
 6031000   0.70136304    0.1279027  -0.31989155   0.73210041    1.4254965   0.12647151   0.12961388   0.12762269 
 6032000   0.70048182   0.12803234  -0.31633148   0.73433871    1.4284377    0.1298688   0.12708581   0.12714241 
 6033000   0.70085866    0.1255328  -0.31736574   0.73386968     1.414418    0.1220784   0.12484063   0.12967938 
 6034000   0.69777254   0.12946866  -0.31355973   0.73304675    1.4349324   0.12699714   0.13236534    0.1290435 
 6035000   0.69965574   0.12981446   -0.3179501   0.73148104    1.4352414   0.12919182    0.1314997   0.12875186 
 6036000   0.70629473   0.12880823  -0.31902194   0.74036718    1.4386725   0.12918009   0.13049567   0.12674894 
 6037000   0.70189138   0.12922185  -0.31615055   0.73663388    1.4371815   0.12618923   0.13288807   0.12858825 
 6038000   0.70800117   0.12930585  -0.31624998   0.74569867    1.4467017    0.1308497   0.12888862   0.12817922 
 6039000   0.70054496   0.12923394  -0.31827052   0.73249438    1.4331076   0.13070276   0.12672118   0.13027789 
 6040000   0.69855294    0.1292446  -0.31560844   0.73216858    1.4328395   0.12840094   0.12913456   0.13019829 
 6041000   0.70114859    0.1294967  -0.31502672   0.73664358    1.4386812     0.130323   0.12881248   0.12935461 
 6042000   0.69952507   0.12763135  -0.31640713   0.73282801    1.4247531   0.12718431   0.12794576   0.12776398 
 6043000   0.69689457   0.13165054   -0.3124219   0.73286769    1.4465819   0.13338985   0.13214034   0.12942142 
 6044000   0.70498194   0.12584883  -0.31831341   0.73910662    1.4213682   0.12428486   0.12702125   0.12624038 
 6045000   0.70608228   0.13128263  -0.31566206   0.74340841    1.4551281   0.12969187   0.13336214   0.13079387 
 6046000   0.70196799   0.13000471  -0.31647088   0.73642845    1.4412202   0.12903376   0.12960937   0.13137099 
 6047000   0.69947118   0.12556381   -0.3160456   0.73310871    1.4138251   0.12762407   0.12509717   0.12397021 
 6048000   0.69476168   0.13037458  -0.31658324   0.72550717    1.4323041    0.1327346   0.12734576   0.13104339 
 6049000   0.69931112   0.12881655  -0.31737565   0.73153858     1.429889   0.12870354   0.12711028   0.13063585 
 6050000   0.69769067   0.12952821  -0.31566189   0.73082179    1.4330303   0.12863899   0.12932374   0.13062189 
 6051000   0.70022919    0.1281654  -0.31723919   0.73305207    1.4278724   0.12604656   0.12960465   0.12884498 
 6052000   0.70978972   0.12923814  -0.31936249   0.74526886    1.4459048   0.12775131   0.12919745   0.13076567 
 6053000   0.70076321   0.12572679  -0.31835536    0.7327369    1.4143369   0.12694572    0.1264764   0.12375825 
 6054000   0.70120555   0.13184334  -0.31344827   0.73830747    1.4530669   0.13299214   0.12661784   0.13592004 
 6055000    0.7004399   0.12534141  -0.31764467   0.73296264    1.4124733   0.13034828   0.12068131   0.12499465 
 6056000   0.69848217   0.12535488  -0.31765547   0.73001541    1.4095991   0.12255178   0.12532114    0.1281917 
 6057000   0.69271319   0.12667766   -0.3177957   0.72122214     1.407977   0.12563592   0.12552585   0.12887121 
 6058000   0.69880972   0.13041962  -0.31517148   0.73299068    1.4400318   0.13132514   0.12784863   0.13208508 
 6059000   0.70112175   0.12955374  -0.31567667   0.73595336    1.4383003   0.12879533   0.12997382   0.12989208 
 6060000   0.70419964   0.12860478  -0.31635571   0.73989094    1.4370933   0.12828519   0.12887027   0.12865889 
 6061000   0.70206443    0.1306766  -0.31479942   0.73824456    1.4466788   0.13248302   0.12906356   0.13048321 
 6062000   0.70244144   0.12839499   -0.3199011   0.73370838    1.4297734   0.13260263   0.12451699   0.12806535 
 6063000   0.70318093   0.12597165  -0.31511709   0.73960156     1.422529   0.12667995   0.12477651    0.1264585 
 6064000   0.70254321    0.1272453  -0.31902982   0.73473231    1.4245645   0.12785626   0.12633647   0.12754317 
 6065000   0.70383884   0.13184553  -0.31508649   0.74061898    1.4553903   0.13265147   0.13241101   0.13047411 
 6066000   0.69324322   0.12556232  -0.31693402   0.72287881    1.4035871   0.12711727   0.12275916   0.12681054 
 6067000   0.69092225   0.12902313  -0.31848109   0.71785046    1.4173208   0.13197091   0.12705422   0.12804426 
 6068000   0.69966444   0.12840617  -0.31657945   0.73286474    1.4289903   0.12359577    0.1309722   0.13065053 
 6069000   0.70191319   0.13020553  -0.31612117   0.73669598    1.4425764   0.13101113   0.12963357   0.12997188 
 6070000    0.7047837    0.1289854   -0.3165041    0.7406186    1.4398844   0.13373327   0.12801585   0.12520707 
 6071000   0.70286215   0.13066876  -0.31292597   0.74131455    1.4497063   0.12727265   0.13400475   0.13072889 
 6072000   0.70305319    0.1287492  -0.31571531   0.73881174     1.436797   0.12955737   0.12786435   0.12882587 
 6073000   0.70612371   0.13090223  -0.31791558   0.74121702    1.4508745    0.1319949   0.13133871   0.12937307 
 6074000   0.70633123    0.1320985  -0.31689166   0.74255222     1.458695   0.12953843    0.1342686   0.13248846 
 6075000   0.69994034   0.12881493  -0.31549972   0.73435829    1.4326999   0.13374122   0.12355759   0.12914599 
 6076000   0.70175548   0.13005426  -0.31461738   0.73796321    1.4430236   0.13084205   0.12959428   0.12972646 
 6077000   0.70396776   0.12491634    -0.319199   0.73669985    1.4139061   0.12603042   0.12335424   0.12536435 
 6078000   0.71006874   0.12908619  -0.31389629   0.75115357    1.4509658   0.12841783   0.13162368   0.12721706 
 6079000    0.7029192   0.12820507    -0.317551   0.73677508    1.4318105   0.13143025   0.12581764   0.12736732 
 6080000   0.69904281   0.12600343  -0.31648716   0.73202463    1.4151243   0.12674847   0.12430065   0.12696116 
 6081000   0.69595717   0.13010603  -0.31585089   0.72803267    1.4333737   0.12821295   0.13208369   0.13002144 
 6082000   0.69603735   0.12633981  -0.31896051   0.72504331    1.4099666    0.1268906   0.12548894    0.1266399 
 6083000   0.69955089   0.12634025   -0.3210958   0.72817807    1.4131037   0.12676404   0.12637183   0.12588487 
 6084000   0.69913798    0.1291783  -0.31680389   0.73185065    1.4321622   0.12857769    0.1300629   0.12889432 
 6085000   0.69742017   0.12641197  -0.31660673   0.72947122    1.4147857   0.12386796   0.12643052   0.12893744 
 6086000   0.70958364   0.12921933  -0.31888257   0.74543968    1.4459736   0.12826461   0.12719405   0.13219932 
 6087000   0.70544054   0.13213491  -0.31460687   0.74350103    1.4598412   0.13169036   0.13207897   0.13263539 
 6088000   0.70188892   0.12834496  -0.31578474   0.73699599    1.4327898   0.12790109   0.12968643   0.12744737 
 6089000   0.69688615   0.13016391  -0.31516395     0.730113    1.4357678   0.13307771   0.12765617   0.12975785 
 6090000   0.70036118     0.129784  -0.31708166   0.73340757    1.4370028   0.12761898   0.12989535   0.13183766 
 6091000   0.69793044   0.12824537  -0.31762185   0.72922147    1.4244753   0.13031404   0.12469931   0.12972274 
 6092000    0.6932968   0.12618156  -0.31716374   0.72272946    1.4067949   0.12455736   0.12586317   0.12812416 
 6093000   0.69531549   0.13061412  -0.31269177   0.73022931    1.4383249   0.13023616   0.13190366   0.12970255 
 6094000   0.69791585   0.12768745  -0.31746973   0.72935169    1.4215809   0.12803739   0.12953919   0.12548578 
 6095000   0.69793127   0.12897172  -0.31526308   0.73158148    1.4307731   0.12983112   0.12781804   0.12926599 
 6096000   0.70048767   0.12927828  -0.31618417   0.73449481    1.4353483   0.12525913    0.1297494    0.1328263 
 6097000   0.70416875   0.13381662  -0.31200674   0.74419356    1.4696508   0.13407573   0.13468476   0.13268938 
 6098000   0.69734826   0.13033203  -0.31375157   0.73221852    1.4387848   0.12768513   0.13147325   0.13183772 
 6099000   0.69806203   0.12765911  -0.31643158   0.73060911    1.4226847   0.12589406   0.12909158    0.1279917 
 6100000   0.69538171    0.1309814  -0.31240057   0.73061985    1.4407065   0.13111464   0.13158493   0.13024463 
 6101000   0.70111514   0.12975362  -0.31430191   0.73731822    1.4407487   0.13184436   0.13028581    0.1271307 
 6102000   0.70158439   0.13003773  -0.31614048   0.73618348    1.4411543   0.13107062    0.1276338   0.13140878 
 6103000   0.70288573    0.1303063  -0.31804254   0.73623334    1.4426601   0.12826273   0.13322171   0.12943445 
 6104000    0.7045369   0.12583815  -0.32057646   0.73617604    1.4183797   0.12609812   0.12691035     0.124506 
 6105000    0.6968107   0.12711289  -0.31959365   0.72557014    1.4146845   0.12821084    0.1267162   0.12641164 
 6106000   0.69886057    0.1267164  -0.31758723   0.73065121    1.4176161   0.12799933    0.1269635   0.12518637 
 6107000   0.69739041   0.12657731  -0.31723499   0.72879832    1.4150092   0.12450764   0.12552214   0.12970214 
 6108000   0.69314996   0.12515323  -0.31986561   0.71980734    1.3982978   0.12511633   0.12392062   0.12642273 
 6109000   0.69902904   0.12484002  -0.32031241   0.72817872    1.4049712   0.12487013   0.12577061   0.12387933 
 6110000   0.69927055   0.12925927  -0.31747068    0.7313827    1.4321332   0.12852914   0.12724058   0.13200808 
 6111000   0.69521045   0.12923225  -0.31593982   0.72682372    1.4274277   0.12968658   0.13007298    0.1279372 
 6112000   0.69344326   0.12770361  -0.31575785   0.72435502    1.4166719   0.12666679   0.12636237   0.13008167 
 6113000   0.69867461   0.12998724  -0.31611886   0.73184065    1.4365377   0.13014521   0.12763486   0.13218164 
 6114000   0.69857443   0.12937947  -0.31566583   0.73214343    1.4335456   0.12963023   0.12955203   0.12895616 
 6115000   0.70360987    0.1279768  -0.31781185   0.73755019    1.4313481   0.12654538   0.12925596   0.12812908 
 6116000   0.70290397   0.12966399  -0.31659321   0.73771003    1.4406546   0.13119804   0.13025996   0.12753397 
 6117000   0.69881276     0.129458  -0.31750534   0.73066139    1.4324892   0.13133179    0.1297627    0.1272795 
 6118000   0.69351127   0.12730121  -0.31632801   0.72388689    1.4140222    0.1257451   0.12841525   0.12774327 
 6119000   0.69658943   0.12991163  -0.31615614   0.72867577    1.4329629   0.13110512   0.13043911   0.12819067 
 6120000   0.69832489    0.1283356  -0.31608877   0.73134619    1.4270892   0.12863264   0.12961524   0.12675892 
 6121000   0.69852858   0.12821706   -0.3161792   0.73156127    1.4266617   0.12824093   0.12832251   0.12808774 
 6122000   0.69818522   0.12910234  -0.31628578   0.73093968    1.4308394   0.12959029   0.12897721   0.12873951 
 6123000   0.69916531   0.12865466  -0.31687653     0.731819    1.4292917    0.1273695   0.12833625   0.13025824 
 6124000   0.70748945    0.1307643  -0.31463602   0.74654508    1.4554548   0.12882966   0.12869707   0.13476617 
 6125000   0.70502342   0.12848289  -0.31696528   0.74051697    1.4370585   0.12669906   0.13001064   0.12873898 
 6126000   0.70189438   0.13040777  -0.31717367   0.73561525    1.4425921   0.13112644   0.12874786   0.13134902 
 6127000   0.70006311   0.12984948  -0.31677113   0.73327102    1.4372212   0.12675557   0.13350542   0.12928745 
 6128000   0.69937687   0.12779905  -0.31897325   0.73003961    1.4228738   0.13017345   0.12716272   0.12606097 
 6129000   0.69489485    0.1312413  -0.31314076   0.72914941    1.4406451     0.132729   0.13112918   0.12986574 
 6130000   0.69636242   0.12758103   -0.3147843    0.7297071    1.4213594   0.13220012   0.12788541   0.12265757 
 6131000   0.69708408   0.12982177  -0.31653096   0.72904288    1.4328429   0.12847351   0.13057398   0.13041782 
 6132000   0.70047492   0.12933561  -0.31553137   0.73512848    1.4362928   0.12709585   0.13115381   0.12975717 
 6133000   0.70291788   0.13153227   -0.3178336   0.73649051    1.4495635   0.13192399    0.1296208   0.13305201 
 6134000    0.7029758    0.1274262  -0.31490137    0.7395096    1.4303225   0.12663339   0.12659277   0.12905242 
 6135000   0.69895979   0.12902636  -0.31580128   0.73258599    1.4320738   0.13167774   0.13004255   0.12535879 
 6136000   0.69952236   0.12872502  -0.31732207   0.73190901    1.4297632   0.12714074   0.13117022    0.1278641 
 6137000   0.69873519   0.12612214  -0.31894924   0.72910114    1.4128444   0.12610704   0.12653545   0.12572394 
 6138000   0.70273302   0.12933334  -0.31580277   0.73824405    1.4393961   0.12766571    0.1288668   0.13146751 
 6139000   0.69814112    0.1295663  -0.31578061   0.73137871    1.4337937   0.12863957   0.12834929   0.13171002 
 6140000   0.70616646    0.1303231  -0.31742441   0.74177232    1.4482902   0.13163888   0.13287127   0.12645916 
 6141000   0.70668661   0.13153091  -0.31504816   0.74492876    1.4579945    0.1302351   0.13169246   0.13266519 
 6142000    0.6980193   0.12621506  -0.31571601   0.73126058    1.4155076   0.13036506   0.12557939   0.12270075 
 6143000   0.69909293   0.12384602  -0.32026445   0.72832251    1.3997263   0.12357316   0.12237738   0.12558753 
 6144000   0.69883461   0.13012886  -0.31616827   0.73203123     1.437496   0.12617966   0.13307611   0.13113082 
 6145000    0.6954723   0.12729569  -0.32019583   0.72296046    1.4130659   0.12704082   0.12725006    0.1275962 
 6146000   0.69869318   0.12809598  -0.31839177   0.72959561    1.4240396   0.12346415   0.13120358   0.12962022 
 6147000   0.69988288   0.12829403   -0.3158628   0.73390903    1.4294267   0.13055384   0.12516972   0.12915853 
 6148000   0.69651291   0.12592472  -0.31752141   0.72719571    1.4098687   0.12516054   0.12570173    0.1269119 
 6149000   0.70011314   0.13017205  -0.31849895   0.73161826    1.4373172   0.12721282   0.12906295   0.13424038 
 6150000   0.70561868   0.12921288  -0.31706026   0.74131484    1.4418139   0.13062797   0.12986386   0.12714682 
 6151000   0.71088609   0.13196874  -0.31434402    0.7519318    1.4673711   0.13208604   0.13050938   0.13331081 
 6152000   0.70643709   0.12899345  -0.31653049   0.74307216    1.4423816   0.12257917   0.12996325   0.13443792 
 6153000   0.70343896   0.12901864   -0.3166018   0.73850389    1.4379499   0.12859322   0.12912125   0.12934144 
 6154000   0.70175322   0.12805783  -0.31832159   0.73425561    1.4284928   0.12838809   0.12632025   0.12946514 
 6155000   0.70302763   0.13033463  -0.31720144   0.73728728    1.4438676   0.12959793   0.13126738   0.13013859 
 6156000   0.70056822   0.12946948  -0.31737448    0.7334253    1.4353154   0.13216031   0.12569191   0.13055623 
 6157000   0.69982792   0.12652765   -0.3176069   0.73208249    1.4180241   0.12585818   0.12794828    0.1257765 
 6158000   0.69296523   0.12873148  -0.31658263   0.72281324    1.4207025   0.12963513   0.12724619   0.12931313 
 6159000   0.69745742   0.12879005  -0.31660304   0.72953078    1.4277375   0.12844547   0.12694254   0.13098213 
 6160000    0.6980242   0.12907559  -0.31810747   0.72887648    1.4286312    0.1275115   0.13100634   0.12870892 
 6161000   0.69865205   0.12697392  -0.31912212   0.72880356    1.4171645   0.12561227   0.12599124   0.12931825 
 6162000   0.69515277   0.12770437  -0.31861629   0.72406072    1.4163817   0.12562856   0.13175929   0.12572526 
 6163000    0.6928944   0.12656521  -0.31712635   0.72216329    1.4083086   0.12634209   0.12724028   0.12611326 
 6164000   0.69555463    0.1295092  -0.31642021   0.72685956     1.428965     0.128031   0.12948623   0.13101035 
 6165000   0.69865761   0.12766637  -0.31680775   0.73112627    1.4232412   0.12688215   0.12462916   0.13148779 
 6166000   0.69810014   0.12687853  -0.31598038   0.73111747    1.4189613   0.12865381   0.12523187   0.12674992 
 6167000   0.71020203   0.13300843  -0.31434431   0.75090547    1.4719812   0.13286872   0.12995764   0.13619894 
 6168000   0.70565777   0.12990948  -0.31520841   0.74322532    1.4475008   0.13014013   0.13266048   0.12692784 
 6169000   0.70009503     0.128402  -0.31655186   0.73353818    1.4296412   0.13063857   0.12792633   0.12664108 
 6170000    0.6953846   0.12622964  -0.31800329   0.72502146    1.4093475   0.12748765   0.12526762   0.12593366 
 6171000   0.69674847   0.12593402  -0.31775258   0.72731787    1.4100413   0.12641778   0.12350847   0.12787581 
 6172000   0.69897836   0.12747152  -0.31602524   0.73238988    1.4234485    0.1300782    0.1280613   0.12427506 
 6173000   0.70378034   0.13062446  -0.31970879   0.73590893    1.4440605   0.12943083   0.13267208   0.12977046 
 6174000   0.70332753   0.12916305  -0.31687158   0.73806697    1.4382959   0.12918565     0.127057   0.13124652 
 6175000   0.70162144   0.12871845  -0.31578151   0.73659803    1.4344166    0.1310893   0.12782343   0.12724263 
 6176000   0.70209442    0.1288284  -0.31524542   0.73784354    1.4362582    0.1266011   0.13066308   0.12922101 
 6177000   0.69096413   0.12618407  -0.31547133   0.72092305    1.4050021   0.12572547   0.12755308   0.12527367 
 6178000   0.69491358   0.12869395  -0.31749326     0.724825    1.4225108   0.12603597   0.13316368   0.12688221 
 6179000   0.69509923    0.1268551   -0.3179064   0.72469032    1.4124071   0.12821301   0.12579329     0.126559 
 6180000   0.69859278   0.12760083  -0.31895341   0.72888337     1.420643   0.12515812   0.12742968   0.13021469 
 6181000   0.70423435   0.12730247  -0.31790808   0.73839063    1.4285328   0.12801663   0.12440027    0.1294905 
 6182000   0.70547401   0.13128817  -0.31385404   0.74430406    1.4560538   0.13184654   0.13192034   0.13009762 
 6183000   0.70255932   0.13022184  -0.31261696   0.74116933    1.4471382   0.13212952   0.12997269   0.12856332 
 6184000   0.70056264   0.12987222  -0.31635634   0.73443507    1.4385086   0.13099142   0.12638055    0.1322447 
 6185000   0.70186936   0.13086777  -0.31606935   0.73668205    1.4461527   0.12633591   0.13293465   0.13333276 
 6186000   0.70388969   0.12649328  -0.31884078   0.73694096    1.4226963   0.12682924    0.1264799   0.12617071 
 6187000   0.70578839   0.12967685  -0.31725244   0.74137721    1.4443916   0.12907223   0.12925953    0.1306988 
 6188000    0.6973458   0.12773506  -0.31416962   0.73179678    1.4242841    0.1283186   0.12813833   0.12674825 
 6189000   0.69595762   0.13001594  -0.31507095   0.72881328    1.4336659   0.13140138   0.12683753   0.13180891 
 6190000   0.69712722   0.12794319  -0.31667806   0.72896048    1.4225762   0.12598117    0.1291548   0.12869362 
 6191000   0.69836626   0.12666029  -0.31715387   0.73034315    1.4170039   0.12679442   0.12365733   0.12952914 
 6192000   0.70459152   0.13009405  -0.31619634   0.74063809    1.4459142   0.12909612   0.13025768   0.13092834 
 6193000   0.70174539   0.13347463  -0.31538769   0.73717777    1.4607809   0.13361903   0.13403458   0.13277028 
 6194000   0.70214587   0.12809452  -0.31748568   0.73568047    1.4301165   0.13015556   0.12785946   0.12626852 
 6195000   0.69854408   0.12974394  -0.31367681   0.73408692     1.437465   0.12915197   0.12968461   0.13039524 
 6196000   0.70024379   0.12809785  -0.31410247    0.7362107    1.4306648   0.13115225   0.12748658   0.12565472 
 6197000   0.69637949   0.12625419  -0.31582143   0.72869557    1.4131547   0.12615433   0.12692757   0.12568066 
 6198000   0.69606296   0.12752563  -0.31692743   0.72711481    1.4184668   0.12792254   0.12795889   0.12669546 
 6199000   0.69532572    0.1285488   -0.3202574   0.72267903    1.4195779   0.12637015   0.12883446   0.13044178 
 6200000   0.69507247   0.12623206  -0.31670958     0.725847    1.4101862   0.12596899   0.12781953   0.12490766 
 6201000   0.69742902   0.12518799  -0.31968445   0.72640677    1.4050857   0.12416969   0.12615647    0.1252378 
 6202000   0.68972172   0.12768857  -0.31900099   0.71552987    1.4077652     0.130802   0.12653015   0.12573356 
 6203000     0.697298   0.12642563   -0.3181869   0.72770779    1.4130963    0.1258791   0.12687508    0.1265227 
 6204000   0.69895966    0.1289394  -0.31672924   0.73165784    1.4306743   0.12882172   0.13014364   0.12785285 
 6205000    0.6984824   0.12882215  -0.31797235   0.72969886    1.4280796   0.12980434    0.1284373   0.12822482 
 6206000   0.70423275   0.12744117  -0.31642799   0.73986831    1.4307624   0.12474927   0.12809357   0.12948066 
 6207000   0.70104868    0.1263255  -0.31920703   0.73231341    1.4171591    0.1304607   0.12381731   0.12469849 
 6208000   0.70267854   0.12804522  -0.31716876   0.73679634    1.4309651   0.12460559   0.13253536    0.1269947 
 6209000   0.70185301    0.1267581  -0.32006483   0.73266206     1.419853   0.12746287   0.12438477   0.12842665 
 6210000   0.70288792   0.13140453  -0.31877005   0.73550912    1.4478897   0.13096809   0.13080805   0.13243743 
 6211000   0.70227321   0.13054091  -0.31579535   0.73756179    1.4452604   0.12988229   0.12742243     0.134318 
 6212000   0.70634085   0.12858629  -0.31968316   0.73977514    1.4368773   0.12796392   0.12917282   0.12862214 
 6213000   0.70536337   0.13102981  -0.31670698   0.74128517    1.4516343   0.12994706   0.13118905   0.13195332 
 6214000   0.69948493   0.12970492  -0.31531057   0.73386435    1.4370308   0.12889919   0.13170084   0.12851472 
 6215000   0.69915148   0.12725684  -0.31784263   0.73083216    1.4207269   0.12889872   0.12560462   0.12726718 
 6216000   0.69501275     0.126796  -0.31753003   0.72493697    1.4123334   0.12401124   0.12861892   0.12775785 
 6217000   0.69634459   0.12885288  -0.31581149   0.72865316    1.4272005   0.13019537   0.12749134   0.12887192 
 6218000   0.69997013   0.13018973  -0.31992057   0.72998214    1.4357769   0.12890169   0.13107646   0.13059102 
 6219000   0.70026778   0.12836374  -0.31666301   0.73368614    1.4295817   0.12612593   0.13080944   0.12815583 
 6220000   0.69930178    0.1280367  -0.31782772   0.73107251    1.4251951   0.12518341   0.13142932   0.12749737 
 6221000   0.69730648   0.12828386  -0.31995648   0.72595094    1.4214135   0.12910124   0.12521406   0.13053629 
 6222000   0.69562848   0.12854086  -0.31756032   0.72583022     1.422686   0.13190713   0.12521123   0.12850422 
 6223000   0.69823395   0.12692363  -0.31538974   0.73190881    1.4199972   0.12361727   0.12859174   0.12856188 
 6224000   0.70534356   0.12634631  -0.32149688   0.73646556    1.4214241   0.12296414   0.12770407   0.12837073 
 6225000   0.69931076    0.1278585  -0.31646642   0.73244727    1.4256038   0.12555534   0.12699994    0.1310202 
 6226000   0.69959699   0.12618415  -0.32117361   0.72816941    1.4122488   0.12734669   0.12509463   0.12611111 
 6227000    0.6985173   0.12595693  -0.31542104   0.73230253    1.4151501   0.12585026   0.12681683   0.12520371 
 6228000    0.7069846   0.12875561  -0.31688139   0.74354248    1.4415625   0.12714324    0.1276194   0.13150419 
 6229000   0.70632052    0.1284422  -0.31886026   0.74056754    1.4368885   0.12902694   0.13076175    0.1255379 
 6230000   0.70228762   0.13060318  -0.31639937   0.73697938    1.4450156   0.12827168   0.13425644   0.12928142 
 6231000   0.69950763   0.12866473  -0.31517331   0.73403568     1.431563   0.12848666   0.13009141   0.12741611 
 6232000    0.6967443   0.12622459  -0.31897568   0.72608852    1.4103872   0.12403876   0.12535734   0.12927766 
 6233000   0.69952833   0.12335274  -0.32098175   0.72825828    1.3969878   0.12269304   0.12436655   0.12299864 
 6234000   0.70561995   0.13271541  -0.31373729   0.74463971    1.4641269   0.13079379   0.13420783   0.13314461 
 6235000   0.70207859   0.12626473  -0.32010403    0.7329612    1.4174775   0.12614817   0.12733594    0.1253101 
 6236000   0.70209435   0.12872249  -0.31705324   0.73603563    1.4338761   0.12706645   0.13199127   0.12710974 
 6237000   0.70215034   0.12769042  -0.31639656   0.73677629    1.4290216   0.12508677   0.12639952   0.13158496 
 6238000   0.70165768   0.12674338  -0.31963036   0.73280353    1.4199147   0.12404705   0.12728203   0.12890105 
 6239000   0.69678614   0.12839422  -0.31488393   0.73024302    1.4263039   0.12639752   0.13183238   0.12695277 
 6240000   0.69926715   0.12639968  -0.31918077   0.72966751    1.4149154   0.12752524   0.12704019    0.1246336 
 6241000   0.69755257     0.127903  -0.31721294    0.7290636    1.4224614   0.12705049   0.12984059   0.12681791 
 6242000   0.69837118   0.12920093   -0.3136947   0.73380969    1.4342439   0.13076006   0.12910433    0.1277384 
 6243000   0.70772059   0.12826335   -0.3171522   0.74437561    1.4397269   0.12709631   0.12810566   0.12958809 
 6244000   0.70974784   0.13087725   -0.3169656   0.74760293    1.4571249   0.12711544   0.12982105   0.13569525 
 6245000    0.7051098   0.12958229  -0.31767831   0.73993351    1.4424352   0.12666276   0.13166663   0.13041746 
 6246000   0.69973184   0.12866623  -0.31394982   0.73559546    1.4331309    0.1284713   0.12917236   0.12835503 
 6247000   0.69782994   0.12882515  -0.31614204   0.73055053    1.4289476   0.12995803   0.13120481   0.12531261 
 6248000   0.69524181    0.1258606  -0.31757038   0.72524019    1.4075656   0.12380191   0.12773663   0.12604327 
 6249000   0.69461056   0.12994617  -0.31664131   0.72522244    1.4296968   0.13187338   0.13161798   0.12634715 
 6250000   0.70773119     0.130871  -0.31588943   0.74565428    1.4551424   0.13275317   0.12799262   0.13186722 
 6251000   0.69744279   0.13100958  -0.31445001   0.73166186    1.4419013   0.13127457   0.13223801   0.12951615 
 6252000     0.696249   0.12718762  -0.31652598    0.7277953    1.4173148   0.12675297   0.12860145   0.12620844 
 6253000   0.69680084   0.13162028  -0.31462839    0.7305206    1.4440708   0.13141204   0.13270328   0.13074552 
 6254000   0.69847943   0.12805871   -0.3177287   0.72993806      1.42418   0.12401806   0.12998629   0.13017178 
 6255000   0.70671087   0.12988322  -0.31438702   0.74562627    1.4497594   0.12940892   0.13148733    0.1287534 
 6256000   0.70251771    0.1249705  -0.31942739   0.73429648    1.4117963   0.12495724   0.12452028   0.12543397 
 6257000   0.70516717     0.129505  -0.31603236    0.7416655    1.4437482   0.12909772   0.12792167   0.13149562 
 6258000   0.70298415   0.12742607  -0.31806466   0.73635884    1.4271711   0.12503917   0.12925699   0.12798206 
 6259000   0.70192834    0.1299973  -0.31473861   0.73810125    1.4428528   0.12804928   0.13352534   0.12841728 
 6260000   0.69862329     0.127758  -0.31725015   0.73063239    1.4232441   0.12783121   0.13059146   0.12485134 
 6261000   0.69845218   0.12663004  -0.31738995   0.73023593    1.4167326   0.12748876   0.12479459   0.12760676 
 6262000   0.69583554    0.1289584  -0.31609495   0.72760616    1.4267256   0.13019789   0.12756687   0.12911045 
 6263000   0.69618191    0.1271137  -0.31847786   0.72574279    1.4148616   0.12728839   0.12663165   0.12742107 
 6264000   0.69585379   0.12566521  -0.31799593   0.72573256    1.4069987   0.12481975   0.12426462   0.12791128 
 6265000   0.70752696   0.12978888  -0.31623455   0.74500283    1.4486245   0.12774108   0.12972759   0.13189797 
 6266000   0.70051418   0.12854834   -0.3163524   0.73436634    1.4312627   0.12772874   0.12585188    0.1320644 
 6267000    0.6977912   0.13007689  -0.31477972   0.73185475    1.4370378   0.12739539   0.13163054   0.13120475 
 6268000   0.70117497   0.12345924  -0.32069686   0.73101301    1.4003199   0.12513656   0.12485841   0.12038274 
 6269000   0.69405028   0.12602717   -0.3176785   0.72334486    1.4065732   0.12480267   0.12597783   0.12730101 
 6270000   0.70183867   0.12893538  -0.31928159   0.73342377    1.4324184   0.12955571   0.13131166   0.12593877 
 6271000   0.70067494   0.12963472  -0.31724659   0.73371328    1.4364992   0.13086158   0.12909163   0.12895095 
 6272000   0.70302276   0.12874317  -0.31830156   0.73617985    1.4341325   0.12934965   0.12799742   0.12888245 
 6273000   0.70490606    0.1301119   -0.3148265   0.74247973    1.4478526   0.13201467   0.12777582   0.13054521 
 6274000   0.70088666    0.1297212   -0.3168832   0.73439423     1.437649   0.12591719   0.13122986   0.13201655 
 6275000   0.69684577   0.12717204  -0.31764703   0.72756937    1.4170044     0.129718   0.12494537   0.12685275 
 6276000   0.69605578    0.1315429  -0.31727001   0.72676146    1.4398921    0.1340954   0.13128235   0.12925095 
 6277000   0.69869194   0.12961265  -0.31825917   0.72972633    1.4323926     0.129558   0.12992944   0.12935051 
 6278000     0.693734   0.12704931  -0.31794059   0.72260838    1.4113781   0.12668073   0.12506779   0.12939939 
 6279000   0.69716569   0.12808597  -0.31798386   0.72771238    1.4221021   0.12938058   0.12795562    0.1269217 
 6280000   0.70112659   0.12703505   -0.3191971   0.73244021    1.4211326   0.12250118   0.12843348   0.13017048 
 6281000   0.70153781   0.12983016  -0.31634731   0.73590679    1.4397523   0.13023028   0.12880619   0.13045402 
 6282000   0.70276767   0.13350455  -0.31430675   0.73979204    1.4635574   0.13643313   0.13025325   0.13382726 
 6283000    0.7053678   0.13274472  -0.31435702   0.74364178    1.4632879   0.13432894    0.1333935   0.13051173 
 6284000   0.70804006   0.12933938  -0.31877545   0.74323154    1.4444164   0.13025531   0.13139578   0.12636706 
 6285000   0.70201925   0.12852358  -0.31411601    0.7388602    1.4356223   0.12810467   0.12736422   0.13010185 
 6286000   0.69724232   0.12859785  -0.31807548    0.7277357    1.4249004   0.12536008   0.13006822   0.13036524 
 6287000    0.6970331   0.12655993  -0.31909215   0.72640523    1.4125219   0.12603632   0.12648621   0.12715727 
 6288000    0.6963219   0.12919193  -0.31432322   0.73010741    1.4304928   0.12752213   0.12875942   0.13129424 
 6289000   0.69790587   0.13042269  -0.31461588   0.73219058    1.4392483   0.13296866   0.12945381   0.12884561 
 6290000   0.69824624   0.12966271  -0.31647581   0.73084118    1.4337789   0.13129861   0.13049136   0.12719817 
 6291000   0.70056278   0.12527379  -0.31736768   0.73342394    1.4125681   0.12662732   0.12470306     0.124491 
 6292000     0.704445   0.12791963  -0.31688873   0.73972594    1.4332139   0.12704155   0.12673595    0.1299814 
 6293000    0.7011301   0.12948855  -0.31537229   0.73627027    1.4382638   0.12961432    0.1291638   0.12968754 
 6294000    0.7019123   0.12661625  -0.31973513   0.73308068    1.4195027    0.1281396   0.12674969   0.12495947 
 6295000   0.69862952   0.12688275  -0.31501152   0.73288037    1.4207471    0.1276632   0.12670916   0.12627588 
 6296000   0.69617779   0.12874691  -0.31558823   0.72862624    1.4265991   0.12885908   0.12736972   0.13001192 
 6297000   0.69867139   0.12870769  -0.31466712   0.73328756    1.4310478   0.12879889   0.12693431   0.13038986 
 6298000   0.70153264   0.12689454  -0.31890259   0.73334376    1.4212744    0.1304341   0.12443728   0.12581224 
 6299000   0.70893173    0.1302432   -0.3180708   0.74527362    1.4513583    0.1297411   0.13149621   0.12949228 
 6300000   0.70235088   0.12790167  -0.32104904   0.73242462    1.4258152   0.12606899   0.12834559   0.12929042 
 6301000   0.70235529   0.12916489  -0.31717671   0.73630356    1.4365424    0.1292872   0.12912339   0.12908407 
 6302000   0.70946071    0.1303096  -0.31722739   0.74691047    1.4533551   0.12906551     0.134555   0.12730829 
 6303000   0.70645007    0.1306077  -0.31932972    0.7402924    1.4483531   0.13038372   0.13293154   0.12850785 
 6304000   0.70414553   0.12674596  -0.31769554   0.73846994    1.4255951   0.12645638   0.12783351   0.12594798 
 6305000   0.69519759   0.13240803  -0.31160698   0.73113726    1.4489581   0.13216452   0.13063948    0.1344201 
 6306000   0.70279252   0.12921158   -0.3173311   0.73680498    1.4372969     0.126219   0.13075633   0.13065942 
 6307000   0.69904013   0.13054117  -0.31426849   0.73423929    1.4419393   0.12790144   0.13163671   0.13208536 
 6308000   0.70056245   0.12751333  -0.31675361   0.73403752    1.4253228   0.12781182   0.12916215   0.12556603 
 6309000   0.70307709   0.12823995  -0.31658744   0.73797546       1.4332   0.13193352   0.12802118   0.12476515 
 6310000   0.70292598   0.13005848  -0.31402467   0.74031159    1.4453948    0.1337298   0.12885662   0.12758902 
 6311000   0.70206591   0.13113909   -0.3155543   0.73749192    1.4484334   0.13061784   0.12851642   0.13428301 
 6312000   0.70230843   0.12939177  -0.31553252   0.73787746    1.4393463   0.13027768   0.13018865   0.12770897 
 6313000   0.70466011    0.1309849  -0.31478882   0.74214849    1.4522541   0.13169399   0.13223772   0.12902299 
 6314000   0.69805145    0.1271399  -0.31916634   0.72785848    1.4171193   0.12516812   0.13134789    0.1249037 
 6315000   0.69596277   0.12834592  -0.31667032   0.72722163    1.4230206   0.12684902   0.12835751   0.12983121 
 6316000   0.69307624   0.12698636  -0.31836731   0.72119506    1.4096235   0.12614868   0.13190962   0.12290079 
 6317000   0.69550147   0.12899374  -0.31494688   0.72825317    1.4275641   0.12909373    0.1259905   0.13189699 
 6318000   0.70086873   0.12630331  -0.31701519   0.73423534    1.4189608    0.1245557   0.12634766   0.12800658 
 6319000    0.7062383   0.12885858  -0.31615083   0.74315365    1.4417319   0.12381721   0.12955629   0.13320223 
 6320000    0.7053738   0.13071666  -0.31496896   0.74303884    1.4516902     0.125983   0.13333891   0.13282806 
 6321000   0.70305053   0.12771714  -0.31687093   0.73765214    1.4300423    0.1283294   0.12576854    0.1290535 
 6322000   0.70471309   0.12808605  -0.31828361   0.73873317    1.4331233   0.12796616   0.12772121   0.12857078 
 6323000   0.70649624   0.13155368   -0.3174427   0.74224868    1.4554378   0.13303721    0.1308127   0.13081114 
 6324000   0.70298757   0.13011962  -0.31679464   0.73763399    1.4430487   0.13143053   0.13191628   0.12701204 
 6325000   0.69888039   0.12868712  -0.31649099   0.73177718    1.4294259   0.13002212   0.13003097   0.12600829 
 6326000    0.6980327   0.12876774  -0.31566827   0.73132843    1.4294142   0.12863371   0.12865486   0.12901464 
 6327000   0.69252041   0.12581066  -0.31653844   0.72219023    1.4042449   0.12379328   0.12859877   0.12503994 
 6328000    0.6937565   0.12810428  -0.31696786   0.72361486    1.4181038   0.12609921   0.13121584   0.12699778 
 6329000   0.69670051   0.12701213  -0.31720874   0.72778978    1.4163579   0.12450606   0.12863655   0.12789377 
 6330000   0.69912151    0.1306022  -0.31448999   0.73413984    1.4421707   0.13081828   0.12958077   0.13140754 
 6331000   0.70075732   0.12972456  -0.31275488   0.73832854    1.4416015   0.12872929   0.12703013   0.13341427 
 6332000   0.70266558   0.12796961  -0.31522163   0.73872405    1.4324829   0.12531517   0.12986065     0.128733 
 6333000   0.70701335     0.131199  -0.31700798   0.74345901    1.4547253   0.13196764   0.13146477   0.13016459 
 6334000   0.70809102   0.13071086  -0.31861454   0.74346888    1.4520888    0.1280221   0.13360446   0.13050602 
 6335000   0.69974392   0.12931077  -0.31727178   0.73229162    1.4333213    0.1337502   0.12677926   0.12740285 
 6336000   0.69879965   0.13075048  -0.31619028   0.73195679    1.4407916    0.1294989    0.1331631   0.12958944 
 6337000      0.69719   0.12688133  -0.31606884   0.72966388    1.4175229   0.12750163   0.12810662   0.12503572 
 6338000   0.69696056   0.12987562  -0.31441467    0.7309739    1.4350658   0.12988756   0.13241551   0.12732378 
 6339000   0.69483421   0.13146601  -0.31661319   0.72558601    1.4382999   0.13396616   0.12968128   0.13075059 
 6340000   0.69513305   0.12650153  -0.31615952   0.72648791    1.4122879   0.12894238    0.1255916    0.1249706 
 6341000   0.70542066   0.13200396   -0.3174034   0.74067468    1.4563049   0.13437594   0.13065012   0.13098581 
 6342000   0.70422037   0.13103321  -0.31486708   0.74141066    1.4517782   0.12705935   0.13685142   0.12918887 
 6343000   0.70438624   0.13062874  -0.31660121   0.73992533    1.4481001   0.13140563   0.13086158   0.12961901 
 6344000   0.70169417   0.12906208   -0.3179891   0.73449953     1.434181   0.13092423   0.12405793   0.13220408 
 6345000   0.69929582   0.13081179  -0.31518471   0.73370657    1.4428737    0.1290019    0.1346144   0.12881907 
 6346000   0.70005657   0.12723847  -0.31894321   0.73108914    1.4208843   0.12571885   0.12683755   0.12915899 
 6347000   0.69559581   0.12905667  -0.31517435    0.7281672    1.4278193   0.12819586   0.13195286   0.12702128 
 6348000   0.69778835   0.12777773  -0.31764505   0.72898513    1.4217038   0.12636294   0.12713432   0.12983594 
 6349000    0.7044065    0.1296352  -0.31956764   0.73698928    1.4397778   0.12955767   0.12817424   0.13117369 
 6350000   0.70658095   0.12868784  -0.31875431   0.74106413    1.4387167   0.12864759   0.12971712    0.1276988 
 6351000    0.7036117   0.13276587  -0.31447961   0.74088517    1.4606459   0.13250934    0.1316618   0.13412646 
 6352000   0.69202522   0.12746061  -0.31539096   0.72259497    1.4135944   0.12819576   0.12988995   0.12429613 
 6353000   0.69486478   0.12885213  -0.31699324   0.72525182    1.4237951   0.12784796   0.13170587   0.12700257 
 6354000   0.69829512   0.12913763  -0.31678037   0.73060994     1.430701    0.1270776   0.12965518   0.13068012 
 6355000   0.69292361    0.1273183   -0.3166621   0.72267134    1.4128993   0.12755366    0.1274472   0.12695404 
 6356000   0.70040264   0.12760018  -0.31904079   0.73151064    1.4232668   0.12940308   0.12557522   0.12782224 
 6357000   0.70421917    0.1304433  -0.31646432   0.73981162    1.4469811   0.12924579   0.13114285   0.13094128 
 6358000   0.70721886   0.12921934  -0.31737231   0.74340294    1.4439369   0.12576724   0.13268193   0.12920884 
 6359000   0.70291754   0.12819275  -0.31747279    0.7368508    1.4318194   0.12654091   0.12804061   0.12999673 
 6360000   0.70202291    0.1325595  -0.31150059   0.74148112    1.4601231   0.13250204   0.13229122   0.13288523 
 6361000   0.70659245   0.12816212  -0.31820859   0.74162708    1.4364296   0.12709788    0.1268386   0.13054987 
 6362000   0.70196562   0.12742288  -0.31754049   0.73535529    1.4261502   0.12556696    0.1285097   0.12819197 
 6363000   0.69609003   0.12446622  -0.31906162   0.72502122    1.3997873   0.12476888   0.12231057   0.12631921 
 6364000   0.69953363   0.12747553  -0.31910957   0.73013841    1.4212188    0.1281466   0.12565191   0.12862809 
 6365000   0.69497044    0.1275055  -0.31732512   0.72507842    1.4163212   0.12774236   0.12615504   0.12861909 
 6366000   0.69966397   0.12841046  -0.31681501   0.73262847    1.4287773   0.13142888   0.12623629   0.12756621 
 6367000   0.70359187   0.12869381  -0.31752778   0.73780725    1.4354923   0.13049255    0.1269746   0.12861429 
 6368000   0.70919392   0.12947679  -0.31917965   0.74455804    1.4464878   0.13026401   0.13130612   0.12686023 
 6369000   0.70344003   0.13069474  -0.31606284   0.73904445    1.4475771    0.1319545   0.13033293    0.1297968 
 6370000   0.69699963   0.12670671  -0.31604767   0.72939949    1.4163119   0.12834775   0.12407771   0.12769468 
 6371000   0.69484492    0.1248867  -0.31940024   0.72281503    1.3998606   0.12591345   0.12767514   0.12107151 
 6372000   0.69763255   0.12918931  -0.31633127   0.73006524    1.4304364   0.12647464   0.12907304   0.13202024 
 6373000   0.70386521   0.12966034   -0.3182677   0.73747732    1.4404021   0.13209578   0.12891614   0.12796909 
 6374000   0.70652367   0.12999103  -0.31618009   0.74355242      1.44827   0.12696194   0.13033418   0.13267696 
 6375000   0.70052146   0.12709601  -0.31804271   0.73268694    1.4217098   0.12980663   0.12831951   0.12316189 
 6376000    0.7006416   0.12774299  -0.31810799   0.73280185    1.4253322   0.12665434   0.12598918   0.13058545 
 6377000   0.69841671   0.12639617  -0.31642201   0.73115068    1.4163795    0.1288918    0.1249105   0.12538621 
 6378000   0.69767182   0.12777082  -0.32259755   0.72385786    1.4165391   0.12543004   0.12976579   0.12811663 
 6379000   0.69184322   0.12712215  -0.31833077   0.71938218    1.4085467   0.12803506   0.12680555   0.12652583 
 6380000   0.69496796   0.13220569  -0.31345905   0.72894077    1.4456646    0.1346726    0.1311135   0.13083096 
 6381000   0.70121185    0.1281498  -0.31659269    0.7351725    1.4299083    0.1272297   0.13221167   0.12500802 
 6382000   0.70149897   0.12813169  -0.31735132   0.73484453    1.4294821   0.12944807   0.13060727   0.12433974 
 6383000   0.70593418   0.13183247  -0.31477056   0.74407777    1.4587783   0.13229085   0.13155444   0.13165211 
 6384000   0.70772199   0.13333407  -0.31334337   0.74818654    1.4710276   0.13111995   0.13249065   0.13639159 
 6385000   0.70405347   0.13009879   -0.3166775    0.7393499    1.4446517   0.12946939   0.13166906   0.12915793 
 6386000   0.70263827   0.12847018  -0.31795443   0.73595029    1.4324229   0.12748895   0.13078252   0.12713906 
 6387000   0.70002594   0.12908489  -0.31853925   0.73144715    1.4312523   0.12874795   0.13057548   0.12793124 
 6388000   0.69911973   0.12772534  -0.31764958   0.73097757    1.4234122   0.12709103   0.12718345   0.12890155 
 6389000   0.69696749    0.1295615  -0.31949817    0.7259008    1.4282897   0.12678709   0.12930705   0.13259036 
 6390000   0.69304718   0.12596837  -0.31891944   0.72059935     1.403509   0.12408098   0.12623211   0.12759203 
 6391000    0.6975638    0.1285796  -0.31700906   0.72928432    1.4263502    0.1309907   0.12833044   0.12641767 
 6392000   0.69732504   0.12534654  -0.31889402   0.72704124    1.4065797   0.12313883   0.12517974   0.12772105 
 6393000   0.70060192   0.12708547  -0.31810477   0.73274557    1.4217113   0.12836099   0.12642538   0.12647004 
 6394000   0.70117119   0.12748777  -0.31641066   0.73529353    1.4264403   0.12849056   0.12744535   0.12652741 
 6395000   0.70687513   0.13131153  -0.31608258   0.74417711    1.4560535   0.13339926   0.13225316   0.12828216 
 6396000   0.69613371   0.13087105  -0.31508849   0.72905987    1.4385483   0.13284256   0.12680368    0.1329669 
 6397000   0.69679352   0.12495421  -0.31885366   0.72628436     1.403696   0.12715025    0.1234298    0.1242826 
 6398000   0.69746758   0.12720738  -0.31739543   0.72875362    1.4183803   0.12486324    0.1268111   0.12994781 
 6399000   0.70103818   0.13069116  -0.31561208   0.73589261    1.4444058   0.12985974   0.13089274   0.13132101 
 6400000   0.70268284   0.13152607  -0.31275003   0.74122153     1.454261   0.13351721   0.13105754   0.13000347 
 6401000   0.70863455    0.1317086  -0.31584797    0.7470507    1.4610797   0.13184412   0.13141219    0.1318695 
 6402000   0.70699502   0.13100247   -0.3167015   0.74373801    1.4539389   0.13079727   0.13014504   0.13206509 
 6403000   0.70131081   0.12970885  -0.31639778   0.73551583    1.4387036   0.12904297   0.13010278   0.12998078 
 6404000   0.69904469   0.13116227  -0.31695149   0.73156312    1.4426303    0.1325154   0.13077125   0.13020017 
 6405000   0.69303579   0.12645636  -0.31684224   0.72265947    1.4082146   0.12752633   0.12390639   0.12793636 
 6406000   0.69848874   0.12807608  -0.31626725   0.73141347    1.4257496   0.12571499   0.12946602   0.12904722 
 6407000   0.69892487   0.12877188  -0.31708529   0.73124961    1.4293579   0.12962829   0.13060426   0.12608311 
 6408000   0.69093653   0.13094504  -0.31262974   0.72372324    1.4336128    0.1295072   0.13277626   0.13055166 
 6409000   0.70148044   0.12984716  -0.31681907   0.73534898    1.4392866   0.12992881   0.12813642   0.13147624 
 6410000   0.70297267   0.12993381  -0.31641338   0.73799291    1.4424003   0.13138531   0.12721994   0.13119618 
 6411000    0.7013663   0.12847899   -0.3134033   0.73859355    1.4351139   0.12974416   0.12948393   0.12620888 
 6412000   0.70137085    0.1309638  -0.31674597    0.7352577    1.4452489   0.12905212    0.1319245   0.13191478 
 6413000   0.69832013   0.12990387  -0.31617232   0.73125551    1.4355006   0.13172059   0.12759774   0.13039328 
 6414000   0.69744345   0.12413491  -0.32074028   0.72537258    1.3983425   0.12243334   0.12629468   0.12367671 
 6415000   0.69003737   0.12629641  -0.31689866   0.71810565    1.4027936   0.12713165   0.12285965   0.12889793 
 6416000   0.69594936   0.12738165  -0.31565755    0.7282143    1.4187857   0.12986378   0.12775431   0.12452686 
 6417000   0.70083829    0.1316693   -0.3159057   0.73529916    1.4491151   0.12952176   0.13191055   0.13357558 
 6418000   0.69992683   0.13076972  -0.31473716   0.73510058    1.4440397   0.13218036   0.13073037   0.12939844 
 6419000   0.70509386   0.12744914  -0.31770962   0.73987829    1.4308156    0.1286609   0.12855018   0.12513634 
 6420000   0.71216722   0.12828666  -0.32116713   0.74703029     1.442508   0.12938208   0.12814716   0.12733073 
 6421000   0.70156506   0.12753832  -0.31574223   0.73655274    1.4279735   0.12642712   0.12762371   0.12856413 
 6422000   0.69912304   0.13005453  -0.31881539   0.72981673    1.4348785   0.13122489   0.13167852   0.12726016 
 6423000   0.69535376   0.12861502  -0.31764729    0.7253312    1.4225891   0.12878127      0.12825    0.1288138 
 6424000   0.69910378   0.13098769  -0.31529599   0.73330724     1.443428   0.13347835    0.1313643   0.12812041 
 6425000   0.70214094   0.12841661  -0.31721434   0.73594441    1.4321266   0.12558701    0.1312507   0.12841213 
 6426000   0.70389477   0.12910036  -0.31515812   0.74063124    1.4405202   0.12951463    0.1260655   0.13172094 
 6427000   0.70076492   0.12744778  -0.32058902    0.7305058    1.4214357   0.12549255   0.12833757   0.12851321 
 6428000   0.69996243   0.12840624  -0.31584844   0.73404271    1.4301687   0.12631433   0.12791138   0.13099301 
 6429000   0.69809611   0.12863808  -0.31616836   0.73092345    1.4283063   0.12639798   0.13219838   0.12731788 
 6430000   0.69283141   0.12488433  -0.31639801   0.72279714    1.3998299   0.12425118   0.12488395   0.12551785 
 6431000   0.69711587   0.12447741  -0.31782876   0.72779277    1.4026195   0.12495949   0.12511364    0.1233591 
 6432000   0.69783476   0.12706639  -0.31903264   0.72766716    1.4165295   0.12610824   0.12954178   0.12554916 
 6433000   0.70551515   0.12979228  -0.31817783   0.74004198    1.4436821   0.12887794   0.13168219   0.12881672 
 6434000   0.70543356   0.12825257  -0.31921072   0.73888672    1.4341796   0.12475449   0.12988616   0.13011706 
 6435000   0.70247047   0.13105097  -0.31583728   0.73781574    1.4482795   0.12995644   0.12895942   0.13423705 
 6436000   0.70108494   0.12836938  -0.31524434   0.73633049    1.4322567   0.12982126   0.12901672   0.12627016 
 6437000   0.70202344   0.12572767  -0.31691476   0.73606776    1.4176725   0.12825001    0.1240037    0.1249293 
 6438000   0.70134804   0.12708376  -0.31771173   0.73425773    1.4232142    0.1283699   0.12397675   0.12890462 
 6439000   0.70210305   0.12606354  -0.31935475   0.73374717    1.4171727    0.1283209   0.12569706   0.12417267 
 6440000   0.70028544    0.1284226  -0.31721847   0.73315717    1.4293719   0.12630351   0.12866988   0.13029442 
 6441000   0.69466836   0.12854155  -0.32009595    0.7218545     1.418714   0.12756895   0.13004379   0.12801189 
 6442000   0.69720723   0.13035543  -0.31465671   0.73110185    1.4377949   0.12991452   0.12779147   0.13336029 
 6443000   0.70292317   0.12763227  -0.31945936   0.73487268    1.4268028   0.12296308   0.12798625   0.13194749 
 6444000   0.70378943   0.12929492  -0.31654468   0.73908668    1.4400304   0.13021168   0.12713335   0.13053973 
 6445000   0.70160007    0.1274489  -0.31730518    0.7350423    1.4259783   0.12735988   0.12849349   0.12649334 
 6446000   0.70572743   0.12870448  -0.31529032   0.74324788    1.4409907   0.12915029   0.12745744   0.12950572 
 6447000   0.70416629    0.1292266  -0.31649574   0.73970088    1.4402743    0.1272985   0.13046303   0.12991826 
 6448000   0.70060776   0.12984968  -0.31685859    0.7340005    1.4379518   0.12998212   0.12699676   0.13257015 
 6449000   0.70540033   0.12907281  -0.31799178   0.74005581    1.4397954   0.12895607   0.12721231   0.13105003 
 6450000   0.69770296   0.12894065  -0.31514183   0.73136028    1.4303835   0.12914083   0.13145788   0.12622325 
 6451000   0.69561773   0.13066359  -0.31295833   0.73041609    1.4387798   0.12705835   0.13175742     0.133175 
 6452000   0.69944834   0.12739734   -0.3187391   0.73038095    1.4210374    0.1258622   0.12666571   0.12966412 
 6453000   0.69449222   0.12880635   -0.3173656   0.72432063    1.4226157   0.12470891   0.13049777   0.13121237 
 6454000    0.6869763   0.12413306  -0.31755305   0.71285987    1.3858198   0.12539305   0.12354008   0.12346605 
 6455000   0.69541543   0.12700046  -0.31657928   0.72649171    1.4149966   0.12604009   0.12540004   0.12956124 
 6456000   0.69921836   0.12816982  -0.31524013   0.73353498    1.4283792    0.1289387   0.12854529   0.12702546 
 6457000   0.70208146   0.13066251  -0.31409308   0.73897646    1.4473343   0.12825971   0.13094819   0.13277962 
 6458000   0.70125489   0.13006291  -0.31681001   0.73501974     1.440127   0.13403284   0.12552241   0.13063348 
 6459000   0.69952345   0.12994189  -0.31544468   0.73378803    1.4382392   0.12971664    0.1303816   0.12972744 
 6460000   0.69862067   0.12742756  -0.31890643   0.72897217    1.4197925   0.12699707   0.12657307   0.12871255 
 6461000   0.69747096   0.12714106  -0.31807919   0.72807494    1.4173421   0.12618016   0.12920403     0.126039 
 6462000   0.69569176   0.12843641  -0.31849525   0.72499021    1.4212798   0.12544171   0.12889883   0.13096869 
 6463000   0.69828725   0.12809613  -0.31515848   0.73222002    1.4266648   0.13059347    0.1254182    0.1282767 
 6464000   0.70072241    0.1281684  -0.31686795   0.73416312    1.4289997   0.12816743   0.13112234   0.12521544 
 6465000   0.69891925   0.13153833   -0.3136453   0.73468117    1.4477871   0.13499953   0.12818725   0.13142823 
 6466000   0.70494959   0.12783719  -0.31845622   0.73891529    1.4319563   0.12972969   0.12971307   0.12406882 
 6467000   0.70162384   0.12791131  -0.31685233    0.7355308    1.4289736   0.12936879   0.12666784    0.1276973 
 6468000   0.69874554   0.12924909  -0.31590025   0.73216566     1.432861   0.12986561   0.12665414   0.13122751 
 6469000   0.69478899   0.12756667  -0.31658894   0.72554245    1.4171169   0.12778886   0.12547266   0.12943849 
 6470000   0.69725658   0.12843831   -0.3148135   0.73101908    1.4273189   0.13007467   0.12852741   0.12671285 
 6471000   0.70501648   0.12869833   -0.3164102   0.74106164    1.4387711   0.12887388   0.12750735   0.12971378 
 6472000   0.70498866   0.12970104  -0.31710298   0.74032713    1.4434726   0.13202642   0.12511971   0.13195698 
 6473000   0.70320754   0.12847679  -0.31864144   0.73611713    1.4326256    0.1273011   0.12964064   0.12848863 
 6474000   0.70177011   0.12873447  -0.31896227   0.73364026    1.4315457   0.12843058   0.13102035    0.1267525 
 6475000   0.70018769   0.13054611  -0.31363067   0.73659834    1.4443251   0.13178576   0.13108288   0.12876968 
 6476000   0.69641082   0.13023617  -0.31279935   0.73176465    1.4378112   0.13300755   0.12794581   0.12975514 
 6477000   0.69578689   0.12970533  -0.31401846   0.72960969    1.4327784   0.13275868   0.12713376   0.12922355 
 6478000    0.6943145   0.12927471  -0.31598684   0.72543284    1.4262671   0.12828815   0.13079898   0.12873701 
 6479000   0.69349809   0.12374687  -0.32062414   0.71957099    1.3904373   0.12449856   0.12271856   0.12402351 
 6480000   0.69544621   0.13101025  -0.31587439   0.72724277    1.4374858    0.1350699   0.12826882   0.12969203 
 6481000   0.70354676   0.12940834  -0.31703266   0.73823471    1.4397934   0.12470239   0.12869811   0.13482451 
 6482000   0.69888325   0.12993907  -0.31728958   0.73098287    1.4354188   0.12878584    0.1327888   0.12824257 
 6483000   0.69804374   0.12764097  -0.31958974   0.72742351    1.4194008   0.12853047   0.12551818   0.12887426 
 6484000   0.69227558   0.12413494  -0.31792699   0.72043446    1.3934045    0.1249517   0.11995719   0.12749592 
 6485000   0.69830195   0.12887885   -0.3157564   0.73164415    1.4303323    0.1277105   0.12879246   0.13013357 
 6486000    0.7055833   0.12622538  -0.31814339   0.74017864    1.4244816   0.12337678   0.12966902   0.12563034 
 6487000   0.70483871   0.12830216  -0.31647617   0.74072903    1.4362908    0.1271136   0.12878644   0.12900644 
 6488000   0.70243233   0.13098467  -0.31712284   0.73647298    1.4465774   0.12914709   0.13250642   0.13130051 
 6489000   0.70078204   0.13081469  -0.31629901    0.7348215    1.4440044   0.13036677   0.12851616   0.13356114 
 6490000   0.69869796   0.12810928  -0.31638854     0.731606    1.4261221   0.12702644   0.13104922   0.12625218 
 6491000   0.70853848   0.13023589  -0.31731901   0.74543557    1.4514806   0.13170829   0.12934346   0.12965592 
 6492000   0.70811284   0.12982092  -0.31741639   0.74469976    1.4484951     0.130432   0.12484023   0.13419052 
 6493000   0.70544323   0.12886822   -0.3170065   0.74110544    1.4397359   0.12746625   0.12894677   0.13019163 
 6494000   0.70048384   0.12836303  -0.31424458   0.73642864    1.4323204   0.12840752   0.12946662   0.12721496 
 6495000   0.70014656   0.12757183   -0.3145553   0.73561203    1.4272145   0.12630778   0.13048349   0.12592423 
 6496000   0.70076089   0.12853105  -0.31792755   0.73316123    1.4299638   0.12973282   0.12666564   0.12919468 
 6497000   0.69191098   0.12352566  -0.32115381   0.71666076    1.3863278   0.12433282   0.12048981   0.12575437 
 6498000   0.69516972   0.12504942   -0.3185177   0.72418475    1.4021125    0.1249124   0.12281879   0.12741707 
 6499000   0.69732194   0.12447135  -0.31949137   0.72643924    1.4012331   0.12437077   0.12261761   0.12642568 
 6500000   0.70228585   0.12777272  -0.31781668   0.73555943     1.428251   0.12665856   0.12794127   0.12871835 
 6501000   0.70561157   0.13046403  -0.31871854    0.7396459    1.4469277   0.12941637   0.13283684   0.12913888 
 6502000   0.70989736   0.13116794   -0.3165017    0.7482911     1.459389    0.1295975   0.13044499   0.13346132 
 6503000   0.70252547   0.12832798  -0.31566661   0.73806891    1.4337706   0.12519267    0.1277812   0.13201008 
 6504000   0.69904802   0.12960929   -0.3153214   0.73319819    1.4358462   0.12524494   0.13250735   0.13107558 
 6505000   0.69696061   0.12526648  -0.31763938   0.72774926    1.4068538    0.1262526   0.12373816   0.12580869 
 6506000   0.69623698   0.12749512  -0.31957315    0.7247301    1.4159166   0.12827916   0.12809958    0.1261066 
 6507000   0.68873642   0.12706375  -0.31827137   0.71478161    1.4036296   0.12748463   0.12817892   0.12552769 
 6508000   0.69877348   0.12816269  -0.31837166   0.72973616    1.4245418   0.12791781    0.1274067   0.12916356 
 6509000   0.70175409   0.12729138  -0.32003417   0.73254433    1.4226264   0.12789665   0.12699356   0.12698393 
 6510000   0.69991453   0.12950129  -0.31586242   0.73395688    1.4360194   0.12866013   0.12884699   0.13099675 
 6511000   0.70612436   0.12988366  -0.31875483   0.74037876    1.4445143   0.13130982   0.13028272   0.12805845 
 6512000   0.70764407   0.13026494  -0.31497061   0.74644241     1.452645   0.12905826   0.12948361   0.13225296 
 6513000   0.70457452   0.12977024  -0.31716615    0.7396428    1.4431634   0.12707865     0.132118   0.13011406 
 6514000   0.69843613   0.13072432  -0.31698911    0.7306127    1.4393056   0.13223834   0.13307286   0.12686175 
 6515000   0.70066624   0.12987486  -0.31746582   0.73348098    1.4375688   0.13064398   0.13216708   0.12681354 
 6516000   0.69877179   0.13220594  -0.31661836   0.73148692    1.4482122   0.13293623   0.13071633   0.13296527 
 6517000   0.69251129    0.1288225  -0.31392308   0.72479192    1.4231746   0.12898581   0.13079809    0.1266836 
 6518000   0.69547933   0.12478846  -0.31764369   0.72552314    1.4020361   0.12293256   0.12729587   0.12413695 
 6519000   0.70619441   0.12909099  -0.31751462   0.74172403    1.4415622   0.12710003   0.12865727   0.13151566 
 6520000    0.7052591   0.12536935  -0.32009118   0.73774457    1.4174067   0.12351464   0.12522231    0.1273711 
 6521000   0.69972152   0.12801284  -0.31970897   0.72982083    1.4238141   0.12947395   0.12842216   0.12614242 
 6522000   0.69263831   0.12666416  -0.31690039   0.72200514    1.4086868   0.12815872   0.12671105   0.12512272 
 6523000   0.69652807   0.12701208  -0.31708958    0.7276503    1.4162182    0.1285491   0.12514947   0.12733767 
 6524000    0.6989588   0.12898081  -0.31764654   0.73073923    1.4299801   0.12908911   0.12780543   0.13004788 
 6525000   0.69567911    0.1278261  -0.31773055   0.72573594    1.4187168   0.12621919    0.1303633    0.1268958 
 6526000   0.69882624   0.12935041  -0.31355628   0.73463066    1.4358753   0.12819849    0.1329887   0.12686404 
 6527000    0.7007177   0.13025655  -0.31508473   0.73593926    1.4420963   0.13049199   0.12995872   0.13031894 
 6528000   0.70056026   0.13020264  -0.31503964   0.73574821     1.441613   0.13062533   0.12849659   0.13148601 
 6529000   0.70044331   0.13161316  -0.31289478   0.73771765    1.4512292   0.13303083   0.13150064     0.130308 
 6530000   0.70333842   0.13126527   -0.3152768   0.73967808    1.4513036   0.13106163   0.13460222   0.12813195 
 6531000   0.70196766   0.12621534  -0.31802826   0.73487058    1.4191191     0.123549   0.12767365   0.12742338 
 6532000   0.70085271   0.12912905  -0.31903313   0.73219337    1.4322379   0.12829743   0.12922623   0.12986349 
 6533000   0.69592394   0.12810934  -0.31761174   0.72622198    1.4207384   0.12758506   0.12880742   0.12793553 
 6534000   0.69733472    0.1298087  -0.31707425   0.72887553    1.4326046   0.12613653   0.13064773   0.13264183 
 6535000    0.6965458    0.1272777  -0.31718897   0.72757749    1.4175853   0.12820764   0.12653915    0.1270863 
 6536000   0.69915151   0.12900007  -0.31611249   0.73256234    1.4319076   0.12909144    0.1303502   0.12755856 
 6537000   0.70627023   0.13040067  -0.31573753   0.74361484    1.4505532   0.13479726   0.12431585    0.1320889 
 6538000   0.70697472   0.12991914  -0.31543973   0.74496934    1.4492972   0.13026886   0.13094718   0.12854138 
 6539000   0.70486776   0.13109348  -0.31820442   0.73904436    1.4497386   0.13098682   0.13170039   0.13059323 
 6540000   0.69955042    0.1277423  -0.31607267    0.7332005    1.4257271   0.12529331   0.12597133   0.13196227 
 6541000    0.6974383   0.12838069  -0.31465514      0.73145    1.4274375   0.12759029   0.12915436   0.12839742 
 6542000   0.69602303   0.13024431  -0.31573749   0.72824485    1.4343355   0.13188909   0.13113325    0.1277106 
 6543000   0.69528836   0.12518126  -0.31735667   0.72552372    1.4041662   0.12150805   0.12542213   0.12861359 
 6544000   0.69736262   0.12742662  -0.31735604   0.72863558    1.4194508   0.12995714   0.12784402   0.12447871 
 6545000   0.70086106   0.12779675   -0.3148298   0.73640922     1.429231   0.12515928   0.12946622   0.12876476 
 6546000   0.69967677   0.13051223  -0.31532798   0.73413471    1.4416779    0.1297356   0.13271673   0.12908436 
 6547000   0.70336615    0.1307086  -0.31471033   0.74028615    1.4488939   0.13095125   0.13007041   0.13110415 
 6548000   0.70136865   0.13080212  -0.31312133   0.73887905    1.4479938   0.12655386   0.13331882   0.13253367 
 6549000   0.70098736   0.12679246  -0.31632447   0.73510399    1.4224812   0.12416335    0.1288252   0.12738883 
 6550000   0.69987106   0.12787156  -0.31811564   0.73163846    1.4248658   0.13112634   0.12264383   0.12984452 
 6551000   0.69728462   0.12272014  -0.31819338   0.72768125    1.3929813   0.12935594    0.1191141   0.11969036 
 6552000   0.69560666   0.12890943  -0.31567547   0.72768235    1.4265363   0.12962747   0.12914208   0.12795875 
 6553000   0.70064101   0.12837736   -0.3186989   0.73221006    1.4281795   0.12927347   0.12754673   0.12831187 
 6554000   0.70374526   0.12972852  -0.31902889   0.73653621    1.4398307   0.12834338   0.12682913   0.13401306 
 6555000   0.70697009   0.13199124   -0.3158853   0.74451682    1.4600781   0.13522585   0.12857347   0.13217439 
 6556000   0.69174887   0.12528959  -0.31625194   0.72131949    1.4005493   0.12726075   0.12426405   0.12434398 
 6557000   0.69835574   0.12994778  -0.31620967   0.73127157    1.4357547   0.13068706   0.13027488   0.12888138 
 6558000   0.69661624   0.12868208  -0.31621572    0.7286564    1.4262778   0.12831009   0.12861832   0.12911784 
 6559000   0.69833033   0.12914166   -0.3166893   0.73075381    1.4308667   0.13078032    0.1285215   0.12812317 
 6560000   0.69927741   0.12647293  -0.31812533   0.73073834    1.4163833   0.12392821   0.12706447    0.1284261 
 6561000   0.70084176   0.13009408  -0.31587574   0.73533434    1.4406106   0.12589706   0.13379046   0.13059473 
 6562000   0.70008526   0.12971425  -0.31426973   0.73580565    1.4390227   0.13052413   0.13051857   0.12810005 
 6563000   0.70529744   0.12888229  -0.31779035   0.74010291    1.4388097   0.13016215   0.12910955   0.12737518 
 6564000   0.70093158   0.13017085  -0.31676129   0.73458351    1.4402759   0.13021694   0.13075338   0.12954223 
 6565000   0.70131955   0.12957583  -0.31589333    0.7360334       1.4385   0.13049509   0.12871993   0.12951246 
 6566000   0.69777027   0.12895149  -0.31769069   0.72891238    1.4279943    0.1283662   0.13093408   0.12755418 
 6567000   0.69544598   0.12568799  -0.31840966   0.72470716    1.4060968   0.12364831   0.12566217   0.12775349 
 6568000   0.69599717     0.128757  -0.31686687   0.72707669    1.4251043   0.12633729   0.12899614   0.13093758 
 6569000   0.69496948    0.1266407  -0.31714197   0.72526013    1.4118146    0.1240273   0.12951286   0.12638193 
 6570000   0.69658058   0.12885575  -0.31598308   0.72883554    1.4273984   0.12753225   0.13015648    0.1288785 
 6571000   0.69622845    0.1283845  -0.31481483   0.72947562    1.4254838   0.12936798   0.12849941   0.12728612 
 6572000   0.69892707   0.12848425  -0.31735529   0.73098289    1.4275318   0.13135489    0.1261862   0.12791168 
 6573000   0.69925619   0.12852418  -0.31891383   0.72991802    1.4266834   0.12866659   0.13017959   0.12672636 
 6574000   0.69563346   0.12979032  -0.31618296   0.72721506    1.4308445   0.13170884   0.13078623   0.12687588 
 6575000   0.70076893   0.12605451  -0.31961079   0.73149004    1.4148667   0.12449386   0.12655321   0.12711647 
 6576000   0.70325744   0.12860652  -0.31486151    0.7399719    1.4371836    0.1282896   0.13327108   0.12425887 
 6577000   0.70039666   0.13032153  -0.31643433   0.73410813    1.4406174    0.1328594   0.12909211   0.12901307 
 6578000   0.70453471   0.12858837  -0.31849899   0.73825023    1.4353636   0.12972437   0.12699163   0.12904913 
 6579000   0.70547578   0.12846339   -0.3180297   0.74013106    1.4365669   0.13100952   0.12635528   0.12802536 
 6580000   0.71271566   0.13110349  -0.31575564   0.75326439    1.4640129   0.13041853   0.13338572   0.12950622 
 6581000   0.70256438   0.13337415  -0.31465394   0.73913994    1.4621984   0.13012995   0.13482723   0.13516528 
 6582000   0.70182474   0.12814784  -0.31879087   0.73389361    1.4286187   0.12458429   0.13041164   0.12944758 
 6583000   0.69972924   0.13105069  -0.31488801   0.73465337    1.4451157   0.13178009   0.13089869   0.13047329 
 6584000   0.69846239   0.12861887  -0.31837132   0.72926988    1.4265486   0.12885746   0.12775197   0.12924719 
 6585000   0.69321916   0.12509299  -0.31576061   0.72401614    1.4021801   0.12408144   0.12589534   0.12530219 
 6586000   0.69851856   0.12547108  -0.31892443   0.72880102    1.4090147    0.1290075   0.12675935   0.12064639 
 6587000   0.69602938   0.12818242  -0.31693046   0.72706141     1.421974   0.12652204   0.13306184   0.12496339 
 6588000   0.69819235   0.12624674  -0.32041621   0.72681996    1.4112387   0.12515181    0.1293667   0.12422171 
 6589000    0.7026846   0.12711011  -0.31714393   0.73683027    1.4259296    0.1252834   0.12630274   0.12974419 
 6590000   0.69982337    0.1283875  -0.31612663   0.73355593    1.4295803   0.12929328   0.12789612   0.12797311 
 6591000   0.70511745   0.12893179  -0.31651609   0.74110721    1.4400823   0.12727214   0.12741022     0.132113 
 6592000   0.70021473   0.12967509   -0.3161951   0.73407448    1.4370793   0.12789049   0.12915574   0.13197905 
 6593000   0.70428115   0.13043684  -0.31454571    0.7418232    1.4489576   0.13164316   0.12953229   0.13013507 
 6594000   0.70330898   0.12760246  -0.31901787   0.73589286    1.4276613   0.12688084   0.12910704   0.12681951 
 6595000   0.70165769   0.12420262  -0.32146067   0.73097324    1.4043103   0.12522914   0.12324598   0.12413274 
 6596000   0.69962682   0.12910112  -0.31815123   0.73123653    1.4311297   0.12814261   0.12982771   0.12933304 
 6597000   0.69449682    0.1259953   -0.3162469   0.72544623    1.4085018   0.12690844    0.1260331   0.12504434 
 6598000   0.69723925   0.12770851  -0.31528725   0.73051934    1.4228627   0.12497628   0.12899519   0.12915406 
 6599000     0.703014   0.13153739  -0.31434415   0.74012412    1.4532249   0.13265039    0.1310094   0.13095236 
 6600000   0.70154345    0.1287208  -0.31795359   0.73430898    1.4321403   0.12877541   0.12864973   0.12873727 
 6601000   0.69580314   0.12773449  -0.31739491   0.72625762    1.4187419   0.12834417   0.12675965   0.12809965 
 6602000   0.69252798   0.12507381  -0.31978255   0.71895748    1.3970174   0.12197961   0.12420462   0.12903719 
 6603000   0.70034871    0.1290935  -0.31662235   0.73384819       1.4337   0.13167285   0.12857698   0.12703068 
 6604000   0.70189282   0.12811268  -0.31533873   0.73744786    1.4319824   0.12700565   0.13240831   0.12492407 
 6605000   0.70024289   0.12880509   -0.3196927   0.73061912    1.4289074   0.13109028    0.1283263   0.12699869 
 6606000   0.69341209   0.12782397  -0.31660598   0.72346015    1.4164295     0.126478   0.12669578   0.13029812 
 6607000   0.69497257   0.12802647  -0.31785089   0.72455585     1.418623   0.12874289   0.12715076   0.12818575 
 6608000   0.69623448   0.12838644  -0.31758178   0.72671772    1.4227364   0.12813218   0.12918577   0.12784136 
 6609000   0.69708708   0.12698162  -0.31630163    0.7292767    1.4176794   0.12757578   0.12791995   0.12544913 
 6610000   0.70018391   0.12775561  -0.31584267   0.73438069    1.4269794   0.12836915   0.12873637   0.12616131 
 6611000    0.6971631   0.12982674  -0.31179234   0.73390003    1.4377269   0.13170507   0.12889725   0.12887789 
 6612000   0.70501411   0.13042566  -0.31520184   0.74226646    1.4493403   0.13092307   0.12871892     0.131635 
 6613000   0.70390878   0.12933383   -0.3161505   0.73965988    1.4408146   0.13023906   0.13006892    0.1276935 
 6614000   0.70232684   0.12934392  -0.31647159     0.736966    1.4381754   0.13181684   0.12558529   0.13062965 
 6615000   0.70197563   0.12734833  -0.31807401   0.73483679    1.4252276   0.12695272   0.12766911   0.12742316 
 6616000   0.69233822   0.12517112  -0.31704022   0.72141519    1.4000027   0.12609076   0.12705964   0.12236296 
 6617000   0.69498557   0.13024155  -0.31562465   0.72680158    1.4328773   0.13003741   0.12773742   0.13294982 
 6618000   0.69949898   0.13098305  -0.31424071   0.73495531    1.4450509   0.13427231   0.13124823   0.12742861 
 6619000   0.70304525   0.13016983  -0.31652633   0.73798881    1.4436757    0.1323095   0.12851652   0.12968348 
 6620000   0.70432119   0.12855509  -0.31718325   0.73924571    1.4361787    0.1280035   0.12699358    0.1306682 
 6621000    0.7076725   0.12934185   -0.3181513   0.74330437    1.4445026   0.12835358   0.12780094   0.13187103 
 6622000   0.69889056   0.12839792  -0.31735519   0.73092824    1.4270091    0.1272251   0.12872738   0.12924128 
 6623000   0.69962308   0.12993191   -0.3146127   0.73476945    1.4391665   0.13221463   0.12913128   0.12844982 
 6624000   0.69791401   0.12550516  -0.31816386   0.72865481    1.4090532   0.12759262   0.12587156    0.1230513 
 6625000   0.69429246   0.12838878  -0.31337681    0.7280098    1.4240412   0.13071493   0.12627305   0.12817837 
 6626000   0.70311496   0.12974817  -0.31827754   0.73634217    1.4397431    0.1304893    0.1287618   0.12999339 
 6627000   0.70221136   0.13097928  -0.31515552   0.73810885     1.448184   0.13290733   0.13061804   0.12941247 
 6628000   0.70145616   0.12845965  -0.31613724   0.73599439    1.4324099   0.12927623   0.12794143   0.12816128 
 6629000   0.70411525   0.12766355  -0.31820743   0.73791263    1.4300123   0.12619595   0.12796594   0.12882877 
 6630000   0.70166302   0.12861517  -0.31603307   0.73640883    1.4336675   0.12639963   0.12859513   0.13085075 
 6631000   0.69905439   0.13088526  -0.31357514   0.73495402    1.4445195   0.12640794   0.13399487   0.13225297 
 6632000   0.69793989   0.13112353   -0.3130375   0.73381998    1.4446772   0.13107674   0.13142537   0.13086848 
 6633000   0.69986823   0.12670685   -0.3185469   0.73120296    1.4181161   0.12606032   0.12535928   0.12870095 
 6634000   0.69774984   0.12654329  -0.31719209   0.72938034    1.4154068   0.12421372   0.12738929   0.12802687 
 6635000   0.69689139   0.12910253  -0.31721965   0.72806516     1.427966   0.12383162   0.13307111   0.13040487 
 6636000   0.69164943   0.12923436  -0.31691205   0.72051022    1.4211257   0.12757713    0.1312856   0.12884036 
 6637000   0.69964548   0.12897413  -0.31554173   0.73387402    1.4330787   0.12882944    0.1265566   0.13153634 
 6638000   0.70411454   0.12634862  -0.31794277   0.73817624    1.4231473   0.12692707   0.12674353   0.12537527 
 6639000   0.70173852   0.13101557   -0.3157228   0.73683235    1.4471043   0.13017043   0.13167203   0.13120426 
 6640000   0.70316435   0.12988955  -0.31372594   0.74096784    1.4451353   0.12826185   0.13031062   0.13109618 
 6641000   0.70075866   0.12585758  -0.31699242   0.73409301     1.416402   0.12783149    0.1261602   0.12358105 
 6642000   0.70073604   0.13164279   -0.3150559    0.7359956    1.4496678   0.13093774   0.13207184   0.13191879 
 6643000   0.69958746   0.12701014  -0.31724673   0.73208199    1.4206393    0.1297488   0.12490432   0.12637729 
 6644000   0.70091544   0.12655127  -0.32015637   0.73116423    1.4172339   0.12690467   0.12476308   0.12798606 
 6645000   0.69953016   0.12647566   -0.3159565   0.73328628    1.4189461   0.12406876   0.13012103    0.1252372 
 6646000   0.70253845   0.12958582  -0.31501685   0.73873813    1.4412589   0.12854595   0.13027284   0.12993866 
 6647000   0.70699227   0.12821744  -0.31579495   0.74464043    1.4397429   0.12598684   0.12827859   0.13038688 
 6648000   0.70614063   0.12783058   -0.3170965   0.74206149    1.4350667   0.12887436   0.12820895   0.12640843 
 6649000   0.70266362   0.13080687  -0.31687737   0.73706537    1.4462059    0.1304253   0.12918678   0.13280854 
 6650000   0.70053886   0.12802007  -0.31817884   0.73257691    1.4266094   0.12628037   0.12728199   0.13049787 
 6651000   0.69897126    0.1295692  -0.31564321   0.73276125     1.435192   0.12983219   0.13212827   0.12674713 
 6652000   0.70044137   0.12869447   -0.3156767   0.73493282    1.4326214   0.12790559   0.13132142   0.12685639 
 6653000   0.70142701   0.12799701  -0.31862536   0.73346255      1.42737    0.1265836   0.12741019   0.12999724 
 6654000   0.70910194   0.12751625  -0.31849761   0.74510212    1.4364032   0.12806057   0.12679034   0.12769783 
 6655000    0.7015524   0.12614702  -0.31934356   0.73293242    1.4168106   0.12809797   0.12601303   0.12433007 
 6656000   0.69932513    0.1283981  -0.31784358   0.73109166    1.4271735   0.13050004   0.13042317    0.1242711 
 6657000   0.69681838   0.12646859  -0.31692429   0.72825103    1.4138725   0.12519138   0.12604433   0.12817007 
 6658000   0.69922158   0.12791464  -0.31405706   0.73472286    1.4281838   0.12840929   0.12900677   0.12632787 
 6659000   0.69722943   0.12752244  -0.31565549   0.73013636     1.421471   0.12923289   0.12891735   0.12441708 
 6660000   0.69881072   0.12884837   -0.3158993   0.73226437    1.4307873   0.12869899   0.12982767   0.12801844 
 6661000   0.69408865   0.12576239  -0.31614478   0.72493613    1.4067291   0.12417193    0.1270791   0.12603615 
 6662000   0.70081412   0.12975329  -0.31816704   0.73300158    1.4364303   0.12910566   0.12865606   0.13149816 
 6663000   0.70100744   0.12894391  -0.31844793   0.73301065    1.4320515   0.13106238    0.1266253   0.12914404 
 6664000   0.70347041   0.12648994  -0.31758323   0.73756962    1.4233068   0.12426483   0.12885743   0.12634756 
 6665000   0.70477457   0.13087567  -0.31871677   0.73839223    1.4479057    0.1317467   0.12609071   0.13478961 
 6666000   0.70220846   0.12658233  -0.31796265   0.73529738    1.4215355   0.12686271   0.12809681   0.12478747 
 6667000   0.70391771     0.129012  -0.31681621   0.73900756    1.4384176   0.12941284   0.12794894   0.12967423 
 6668000   0.69978344   0.12922957  -0.31474444   0.73487823    1.4354677   0.12797697   0.13276917   0.12694256 
 6669000   0.69615634   0.13063928  -0.31468993   0.72949237    1.4377243   0.13179599   0.13071435    0.1294075 
 6670000   0.69105984   0.12537889  -0.31721281   0.71932512     1.399039   0.12489273   0.12714735    0.1240966 
 6671000   0.69378405   0.12648817  -0.31879682   0.72182722    1.4075548   0.12719504   0.12699645   0.12527301 
 6672000   0.70106738   0.13224353  -0.31668114   0.73486734    1.4517964   0.13253103   0.12982692   0.13437265 
 6673000   0.69990536   0.12923186  -0.31549789   0.73430766    1.4349096   0.13084124   0.12772735   0.12912698 
 6674000   0.70175935   0.13017869   -0.3171394     0.735447    1.4411819   0.12802998   0.13202393   0.13048216 
 6675000   0.70043494    0.1313976  -0.31426241   0.73633747    1.4486805   0.13218267   0.13329699   0.12871315 
 6676000   0.70586132   0.13021497  -0.31526917   0.74346987    1.4494015   0.13340484   0.12859252   0.12864755 
 6677000   0.70237738    0.1286825   -0.3156918   0.73782159    1.4354453   0.13059767   0.12822326   0.12722656 
 6678000   0.70253447   0.13054929  -0.31564289   0.73810612    1.4458502   0.12832034   0.13240792   0.13091963 
 6679000   0.70076111   0.13032123  -0.31439682   0.73669229       1.4432    0.1311494   0.13072926   0.12908503 
 6680000   0.70329441    0.1291401  -0.31535465   0.73953422    1.4396387   0.13218862    0.1278272   0.12740449 
 6681000   0.70086892   0.12487391  -0.31651368   0.73473713    1.4117134   0.12629769   0.12459263   0.12373143 
 6682000   0.69315604   0.12933312  -0.31539046   0.72429161    1.4254425   0.12811861   0.13225884   0.12762191 
 6683000   0.69216207    0.1255708  -0.32127592   0.71691527    1.3976696   0.12485608   0.12466597   0.12719036 
 6684000    0.6913241    0.1265788  -0.31738001   0.71955429    1.4057732   0.12815495   0.12465275    0.1269287 
 6685000   0.69754343   0.12929463  -0.31865854    0.7276043    1.4285465   0.12866409   0.12874177   0.13047802 
 6686000   0.69939185   0.12959879  -0.31708013   0.73195519    1.4345463   0.13133456    0.1296302   0.12783161 
 6687000   0.70463334   0.12848721  -0.31751846   0.73937871    1.4359437   0.12471488   0.13154062   0.12920614 
 6688000   0.70369412   0.12813424  -0.32088171   0.73460669    1.4292581   0.13034544   0.12730654   0.12675074 
 6689000   0.70228453   0.13039962  -0.31465809   0.73871603    1.4456487   0.12887084   0.13195157   0.13037645 
 6690000   0.70034633   0.13004205  -0.31491972   0.73554724    1.4405414   0.13008443   0.12995659   0.13008512 
 6691000    0.7043753   0.12896545  -0.31724818   0.73926195    1.4384196   0.12798897   0.12932436   0.12958302 
 6692000   0.70293777   0.12892718  -0.31634636   0.73800758    1.4369578   0.13010031   0.13010754    0.1265737 
 6693000   0.70184511   0.12898453  -0.32039857   0.73231646    1.4315775   0.12863568   0.12867898   0.12963894 
 6694000    0.6927912   0.12550143  -0.31846933   0.72066551    1.4010437   0.12520109   0.12851194   0.12279125 
[...]
 6841000   0.69761069   0.12983489  -0.31691516   0.72944856    1.4333197   0.13027724   0.12733593    0.1318915 
 6842000   0.69766783   0.12678317  -0.31780826   0.72864117     1.415968   0.12556931   0.12551574   0.12926445 
 6843000   0.69839782   0.12609665  -0.31896669   0.72857765    1.4121827   0.12870227   0.12690908    0.1226786 
 6844000   0.69798232   0.12595131  -0.31932544   0.72759569    1.4104128   0.12391463   0.12540746   0.12853185 
 6845000   0.70459979     0.129897  -0.31724145    0.7396054    1.4438132   0.12895828   0.13212531   0.12860742 
 6846000    0.7052129   0.12923592  -0.31745047   0.74031599    1.4409399   0.12979463   0.12951692   0.12839621 
 6847000   0.69688488   0.13058068  -0.31384004   0.73143502    1.4393493   0.12894029   0.13093514   0.13186662 
 6848000   0.69661744   0.13039668  -0.31533005   0.72954386    1.4364606     0.130064   0.12995208   0.13117397 
 6849000   0.69869069   0.12955121  -0.31735328   0.73063035    1.4329635    0.1301559   0.13231745   0.12618027 
 6850000   0.69722692   0.12877983  -0.31554199    0.7302461    1.4283974   0.13091748   0.12936446   0.12605756 
 6851000   0.69038812   0.12616278  -0.31812532   0.71740508    1.4013686   0.12617103   0.12949599   0.12282132 
 6852000   0.69757918   0.12548321  -0.31772161   0.72859484    1.4088743    0.1258586   0.12399923    0.1265918 
 6853000   0.69963585   0.12622283  -0.31635257   0.73304874    1.4173379   0.12425013   0.12681299   0.12760537 
 6854000   0.69959349   0.12872076  -0.31637265   0.73296512    1.4307962   0.12753646   0.12988834   0.12873748 
 6855000   0.70233415   0.12895172  -0.31878296   0.73466559    1.4337488   0.12884011   0.12727101   0.13074404 
 6856000   0.70244764   0.13001962  -0.31639709   0.73722168    1.4420942   0.13312098   0.12762737    0.1293105 
 6857000   0.69829807   0.13352704  -0.31404356   0.73335118    1.4572384   0.13826453   0.13005158     0.132265 
 6858000   0.70358545   0.12693097  -0.31784382   0.73748159    1.4256097   0.12352167   0.13042781   0.12684344 
 6859000   0.69558288   0.12754996  -0.31836646   0.72495569    1.4164396   0.12660725   0.12858549   0.12745714 
 6860000   0.70006093   0.12774174  -0.31885405   0.73118485    1.4237084   0.12750505    0.1269006   0.12881958 
 6861000   0.69920465   0.12869668  -0.31754035   0.73121418    1.4289147    0.1284067    0.1300113   0.12767202 
 6862000   0.69982302   0.13037354  -0.31566465   0.73401739    1.4408087   0.12953933   0.13164198    0.1299393 
 6863000   0.70302755   0.12882421  -0.31887558   0.73561301    1.4340049   0.13078731   0.12617508   0.12951023 
 6864000   0.70164528   0.12911609  -0.31772201   0.73469329    1.4346676   0.13023957   0.12830353   0.12880517 
 6865000   0.69968995   0.13016716  -0.31569405    0.7337884    1.4394608   0.12911025   0.13151643   0.12987479 
 6866000   0.69972917   0.12830432  -0.31838754   0.73115374    1.4267272   0.12530751   0.13003034   0.12957511 
 6867000   0.69771918   0.12705688  -0.31728851   0.72923793    1.4180487   0.12535741   0.12595169   0.12986155 
 6868000   0.69470731   0.12636678  -0.31733236    0.7246765     1.409746   0.12626966   0.12628047   0.12655019 
 6869000   0.69398509   0.12522719  -0.31776042   0.72316517    1.4020566   0.12485913   0.12650602   0.12431642 
 6870000   0.70251519   0.13040373  -0.31606111   0.73765898    1.4446139   0.13108031   0.12973683   0.13039405 
 6871000   0.70359134   0.12999207  -0.31765967   0.73767456    1.4423978   0.13127927   0.13047921   0.12821774 
 6872000   0.70176711   0.12952674  -0.31496204   0.73763599    1.4398365   0.12746013   0.13330996   0.12781014 
 6873000   0.70215502   0.12937233  -0.31825397   0.73492589    1.4362893   0.13144872   0.13144637    0.1252219 
 6874000   0.70140319   0.12782998  -0.31518653   0.73686565    1.4298676   0.12582442   0.12887043   0.12879511 
 6875000   0.69330448   0.12799713  -0.31557447   0.72433026    1.4182383   0.12902634   0.12967882   0.12528622 
 6876000   0.69924169   0.12871328  -0.31801621   0.73079388    1.4285844   0.12916597   0.12788139   0.12909249 
 6877000   0.69866821   0.12755369   -0.3190845   0.72886541    1.4203695   0.12626492   0.12849914   0.12789702 
 6878000   0.69563902   0.12588322  -0.31905435   0.72435201       1.4068     0.124885   0.12618937   0.12657529 
 6879000   0.69559827   0.12610401   -0.3148259   0.72851933    1.4121643   0.12859217    0.1246364   0.12508347 
 6880000   0.69905596   0.12762774   -0.3159562    0.7325753    1.4244808   0.13165276   0.12515201   0.12607845 
 6881000   0.69970174   0.12756106  -0.31759154   0.73190859    1.4234526   0.12631254   0.12785094   0.12851968 
 6882000   0.70093082   0.13087988  -0.31649786   0.73484581    1.4443821   0.13476362   0.12837162    0.1295044 
 6883000   0.70885842   0.12760481  -0.32081491   0.74241956    1.4342008    0.1290663    0.1300363   0.12371182 
 6884000   0.69816718   0.12496372   -0.3174779    0.7297205    1.4071836   0.12321967    0.1237694   0.12790208 
 6885000   0.69895659   0.12569651  -0.31735083   0.73103164    1.4124675   0.12281957   0.12506811   0.12920186 
 6886000   0.70016007   0.12612096  -0.31751019   0.73267741    1.4164143   0.12584965     0.124623   0.12789023 
 6887000   0.70269824   0.13157425  -0.31632201   0.73767265    1.4509733   0.12695432   0.13662822   0.13114022 
 6888000    0.7091851   0.12959687  -0.31881709   0.74490737    1.4474881   0.12923797    0.1298138   0.12973883 
 6889000   0.70623638   0.13101895  -0.31625652   0.74304508    1.4533353   0.12912978   0.13162201   0.13230508 
 6890000   0.69839058   0.12887214    -0.315742   0.73179149    1.4304433   0.12825812   0.13089334   0.12746496 
 6891000   0.69751807   0.12510666  -0.31796124   0.72826356    1.4065016   0.12488705    0.1249432   0.12548974 
 6892000   0.69653964   0.12658904    -0.318757   0.72600022    1.4122747   0.12527241   0.12812544   0.12636927 
 6893000   0.69877381   0.12978838  -0.31751704   0.73059126    1.4342102   0.13060304   0.13268415   0.12607795 
 6894000    0.6972361    0.1284051   -0.3149496   0.73085226    1.4269721   0.13127835   0.12838666    0.1255503 
 6895000   0.69396225   0.12849688  -0.31634279   0.72454855    1.4211659   0.12537509   0.13040708   0.12970848 
 6896000   0.68719011   0.12626805  -0.31760346   0.71313017    1.3976644   0.12567762   0.12568248   0.12744404 
 6897000    0.6952088   0.12677471  -0.31759243   0.72516863    1.4124496   0.12867829   0.12775237   0.12389347 
 6898000   0.69791578   0.13065215  -0.31541949   0.73140184    1.4397035   0.12870929   0.13583691   0.12741025 
 6899000   0.69610864   0.12912884  -0.31648107   0.72762969    1.4276731   0.13075195   0.12773264   0.12890194 
 6900000   0.70743864   0.12936604  -0.31693545   0.74416945    1.4454988   0.13236224   0.12693188   0.12880402 
 6901000   0.70575694   0.12895606  -0.32009537    0.7384871    1.4375938   0.12964564   0.12936566   0.12785688 
 6902000   0.69974505   0.12842242  -0.31485511   0.73470998    1.4309237   0.13058704   0.12702718   0.12765303 
 6903000    0.6987704   0.12898708  -0.31365797   0.73444523    1.4337201   0.12613542   0.12859602   0.13222978 
 6904000   0.70118981   0.12915589  -0.31479817   0.73693395     1.437124   0.12854413   0.13131651   0.12760702 
 6905000   0.70455459   0.13138788  -0.31688825   0.73989079    1.4521811   0.13066002   0.13214901   0.13135462 
 6906000   0.70506923    0.1256665  -0.31861881   0.73893216    1.4202052   0.12862513   0.12500757   0.12336679 
 6907000    0.7032769   0.13002184  -0.31697642   0.73788618    1.4427708   0.12974908   0.13083668   0.12947976 
 6908000   0.69362048   0.12604645  -0.31753039    0.7228483    1.4061812   0.12571508    0.1274651   0.12495917 
 6909000   0.69845662   0.12852355  -0.31822258   0.72940996    1.4261719   0.13101954   0.12873955   0.12581154 
 6910000   0.70194857   0.12887848  -0.31737421   0.73549601    1.4341821   0.12847765   0.12999307   0.12816472 
 6911000   0.70118805   0.12664568  -0.31905303   0.73267646     1.419258   0.12789981   0.12835433   0.12368292 
 6912000   0.70275546   0.12940799  -0.31929604   0.73478444    1.4363412   0.12782622   0.12827582   0.13212193 
 6913000   0.70642122    0.1323301  -0.31544135    0.7441375    1.4615358   0.13558824    0.1281721   0.13322998 
 6914000   0.70443816   0.13057575  -0.31515019   0.74145422    1.4493417   0.12870146   0.13139772   0.13162807 
 6915000   0.70027437   0.12685519  -0.31512677   0.73523226    1.4229496   0.12473612   0.12706505    0.1287644 
 6916000   0.70503667   0.12662374  -0.32024151   0.73726063    1.4237232   0.12528145   0.12622828   0.12836149 
 6917000   0.69437367   0.12507924  -0.31899242   0.72251601    1.4006054   0.12851272    0.1217108   0.12501419 
 6918000   0.69526063   0.12714746  -0.31880722   0.72403158    1.4133334   0.12824833   0.13056908   0.12262498 
 6919000   0.69837189   0.12738984  -0.31901499   0.72849046    1.4191063    0.1268019   0.12659756   0.12877007 
 6920000   0.69942835    0.1274885  -0.31814838    0.7309417    1.4220924   0.12896755   0.12878427   0.12471369 
 6921000   0.69771265   0.12675413  -0.31828185   0.72823479    1.4154042   0.12548235   0.12711342   0.12766661 
 6922000   0.69824313   0.12786844  -0.31858858   0.72872375    1.4219342   0.12736247   0.12647731   0.12976554 
 6923000   0.70015367   0.12851443  -0.31751282   0.73266517    1.4293777   0.12785162   0.12766352   0.13002816 
 6924000   0.70369956   0.12892772  -0.31943537   0.73606119    1.4350143    0.1254806   0.13077938   0.13052318 
 6925000   0.70489397   0.12739466  -0.31846226   0.73882583    1.4294677   0.12553722   0.12940094   0.12724581 
 6926000   0.69887304   0.12796372  -0.31572505    0.7325321    1.4262591   0.12575751   0.12882428   0.12930937 
 6927000    0.6945152   0.12623093  -0.31707534   0.72464538    1.4089784   0.12542067   0.12709349   0.12617864 
 6928000   0.70097381    0.1287127  -0.31860737   0.73280077    1.4305882   0.12714038   0.12624154   0.13275618 
 6929000   0.69711212   0.12682941  -0.31657565   0.72904024    1.4166178   0.12540531   0.12665557   0.12842734 
 6930000   0.69870362   0.12837676  -0.31624442   0.73175861    1.4277248   0.12783212   0.12889249   0.12840567 
 6931000    0.7035024   0.12748603  -0.31874823   0.73645261    1.4275899    0.1287415   0.12494257   0.12877401 
 6932000   0.70440496   0.13220047   -0.3158228   0.74073181    1.4574274   0.13139453   0.13119271   0.13401417 
 6933000   0.69878066   0.12823077  -0.31680456   0.73131402    1.4264887   0.12928784   0.12610538   0.12929909 
 6934000   0.70055709     0.128926  -0.31805789    0.7327252     1.431669    0.1304371   0.12703424   0.12930667 
 6935000   0.69724102   0.12713197  -0.31668842   0.72912082    1.4183386   0.12661336   0.12590512   0.12887742 
 6936000   0.69590377   0.12863647  -0.31463045   0.72917301    1.4265472   0.12771712   0.12659342   0.13159889 
 6937000   0.69488911   0.13069537  -0.31347853   0.72880302     1.437339   0.13231162   0.13413396   0.12564054 
 6938000    0.6994493   0.12846753  -0.31757877   0.73154271     1.428001    0.1259595   0.12948927   0.12995381 
 6939000   0.69843202   0.12912776  -0.31495528   0.73264037    1.4326779   0.13135037   0.12774369   0.12828921 
 6940000   0.70221033   0.12818998  -0.31805422   0.73520861    1.4301622   0.12924309    0.1265874   0.12873944 
 6941000   0.70692509   0.13111365  -0.31613698   0.74419763    1.4550012   0.12951674   0.13288573   0.13093848 
 6942000   0.70824266   0.12542908  -0.31953063   0.74278024    1.4227662   0.12656346   0.12408052   0.12564326 
 6943000   0.70001883   0.12710004  -0.32028328   0.72969247    1.4187372   0.12485171   0.12883196   0.12761644 
 6944000   0.69599371   0.12827876  -0.31545495   0.72848342    1.4239183   0.12739188   0.12967144   0.12777297 
 6945000   0.69522063   0.12869374  -0.31454557   0.72823322    1.4259178   0.12737032   0.13008222   0.12862868 
 6946000   0.69842705   0.12631184  -0.31793199    0.7296562    1.4144278   0.12686945   0.12547086   0.12659519 
 6947000    0.7015882   0.12975607  -0.31335008    0.7389796    1.4424234   0.12961409   0.13090542    0.1287487 
 6948000   0.70784146     0.132468  -0.31688111   0.74482799    1.4629739   0.13660938   0.12888773   0.13190689 
 6949000   0.70150412    0.1282339  -0.31616925   0.73603432     1.431226   0.12930817   0.13079978   0.12459374 
 6950000   0.69972756   0.12843045  -0.31863022   0.73090864    1.4271659   0.12733476   0.12721106   0.13074554 
 6951000   0.69647564   0.12679351  -0.31559041   0.72907082    1.4164537   0.12769541   0.13027976   0.12240536 
 6952000    0.6914566   0.12333043  -0.31813513   0.71899791    1.3876065   0.12156511    0.1268498   0.12157639 
 6953000   0.69450648   0.12815404  -0.31573686   0.72597077    1.4207295   0.12847414   0.12855145   0.12743652 
 6954000   0.70118328   0.12976572  -0.31454332   0.73717901    1.4406751   0.12927926   0.13045776   0.12956015 
 6955000   0.70263435   0.12919495  -0.31524641   0.73865241    1.4390542   0.12855788   0.13049919   0.12852778 
 6956000   0.70199558   0.12808874  -0.31969027   0.73325045    1.4276552   0.12619212   0.12915883   0.12891526 
 6957000     0.700668    0.1273806  -0.31877885    0.7321706    1.4227363   0.12776949   0.12646849   0.12790383 
 6958000   0.69379634   0.12701991  -0.31812678    0.7225157     1.411126   0.12763519   0.12731549   0.12610905 
 6959000   0.69770946   0.13044197  -0.31576169   0.73075017    1.4379124   0.13166431   0.13025122   0.12941038 
 6960000   0.70090518   0.12771643  -0.31674749   0.73455771     1.426944   0.12509573   0.12977496   0.12827859 
 6961000   0.70267585   0.13295283   -0.3148988   0.73906227    1.4598366   0.13219097   0.13161711   0.13505042 
 6962000   0.69995269   0.12792301  -0.31390663   0.73596991    1.4294762   0.13022152   0.12695287   0.12659463 
 6963000   0.70292591   0.12893486  -0.31715676   0.73717938    1.4361712    0.1267805   0.13098565   0.12903842 
 6964000   0.70689288   0.12883305  -0.31755623   0.74273007    1.4411699   0.12748788    0.1308475   0.12816377 
 6965000   0.70348468   0.12746568   -0.3165609   0.73861335    1.4296403   0.12864149   0.12646054   0.12729501 
 6966000    0.7027197   0.12842837  -0.31875978   0.73526708     1.431513   0.12713457   0.13071577   0.12743477 
 6967000   0.69959518   0.12650623  -0.31926198   0.73007832    1.4159038   0.12532334   0.12657022   0.12762512 
 6968000   0.68906725   0.12678144  -0.31760163   0.71594756    1.4032651   0.12779443   0.12519214   0.12735775 
 6969000   0.69260263   0.12715473  -0.31775012   0.72110189    1.4104431   0.12467681    0.1271979   0.12958948 
 6970000   0.69859623   0.12942884  -0.31733118   0.73051077    1.4321806    0.1296159   0.12886173   0.12980889 
 6971000   0.70154463   0.12755496  -0.31701874    0.7352456    1.4267566   0.12870868   0.12663608   0.12732013 
 6972000   0.70626045   0.13187267  -0.31553943   0.74379828    1.4587168   0.13050132   0.13150508   0.13361161 
 6973000   0.70897366   0.12993944   -0.3172526   0.74615472    1.4505926   0.12919357   0.12767672   0.13294804 
 6974000   0.69745609   0.12910368  -0.31771989   0.72841194     1.428319   0.12735742   0.13092707   0.12902655 
 6975000   0.69495866   0.12819766  -0.31583384   0.72655202    1.4215473   0.12638144   0.12851124   0.12970032 
 6976000   0.70493339   0.13106615   -0.3152673   0.74207992     1.452626   0.12965898    0.1301728   0.13336668 
 6977000   0.70108096    0.1315762  -0.31679273   0.73477613    1.4480874   0.13331278   0.13074238   0.13067345 
 6978000   0.70630639   0.13135016  -0.31444271   0.74496391    1.4570497   0.12815407   0.13388198   0.13201443 
 6979000    0.7005253   0.12699206  -0.31882363   0.73191178    1.4203711   0.12416919   0.12857185   0.12823516 
 6980000   0.69844908   0.12784301  -0.31561761   0.73200362    1.4250762   0.12644775   0.12734639   0.12973491 
 6981000    0.6992925   0.12698793  -0.31747324   0.73141306      1.41985   0.12524917   0.12885481   0.12685979 
 6982000    0.7007512   0.12950597  -0.31535172   0.73572251    1.4378104   0.13214199    0.1268144   0.12956152 
 6983000    0.7035007   0.13114682  -0.31524165   0.73995663    1.4509401   0.13086569   0.13273309   0.12984169 
 6984000   0.70816176   0.12904431  -0.31770267   0.74448686     1.444072   0.12541727   0.12881434   0.13290131 
 6985000   0.70839795   0.12939616  -0.31637486   0.74616894    1.4476616   0.12914133   0.13102104   0.12802611 
 6986000   0.69797666   0.12759449  -0.31711135   0.72980129    1.4215266   0.12527585   0.12727062     0.130237 
 6987000   0.69390612   0.12848535  -0.31628872   0.72451841    1.4210733   0.13068622    0.1302045   0.12456533 
 6988000   0.69582954   0.12912103  -0.31709036   0.72660176    1.4266028   0.13028468    0.1295751   0.12750331 
 6989000   0.70014472   0.12864508  -0.31795106    0.7322135    1.4296343   0.12565498   0.13289655    0.1273837 
 6990000   0.69641498   0.12781217  -0.31677153   0.72779871    1.4207041   0.13004315   0.12774862   0.12564474 
 6991000   0.69721381   0.12675417  -0.31879536   0.72697306    1.4141427   0.12655276   0.12882187   0.12488787 
 6992000   0.70127489   0.12834807  -0.31888614    0.7329736    1.4287842   0.13082652   0.12660287   0.12761481 
 6993000   0.70384905   0.12808069  -0.31813953   0.73758126    1.4319423   0.13026409   0.12633635   0.12764163 
 6994000   0.70314761   0.12981796  -0.31849099   0.73617768     1.439957   0.13093772   0.12941405   0.12910212 
 6995000   0.69978998   0.12342084  -0.31671591   0.73291658    1.4020153   0.12030647    0.1237349   0.12622116 
 6996000   0.69651406   0.13094879  -0.31569605    0.7290228    1.4389327   0.12972903   0.13140967   0.13170767 
 6997000    0.6938801   0.12603779  -0.31891309   0.72185503     1.405141   0.12351785   0.12682887   0.12776664 
 6998000   0.69738486   0.12707808  -0.31830816   0.72771683    1.4166425    0.1284687   0.12692767   0.12583788 
 6999000   0.69501996   0.12672205  -0.31902696   0.72345086    1.4104464    0.1280948   0.12541154   0.12665982 
 7000000    0.6985686   0.12820065  -0.31782528   0.72997523    1.4249867   0.12953266   0.12524003   0.12982927 
Loop time of 3628.56 on 1 procs for 1000000 steps with 20000 atoms

Performance: 119055.379 tau/day, 275.591 timesteps/s
99.9% CPU use with 1 MPI tasks x 1 OpenMP threads

MPI task timing breakdown:
Section |  min time  |  avg time  |  max time  |%varavg| %total
---------------------------------------------------------------
Pair    | 2156.4     | 2156.4     | 2156.4     |   0.0 | 59.43
Neigh   | 1090.9     | 1090.9     | 1090.9     |   0.0 | 30.06
Comm    | 77.1       | 77.1       | 77.1       |   0.0 |  2.12
Output  | 25.083     | 25.083     | 25.083     |   0.0 |  0.69
Modify  | 242.35     | 242.35     | 242.35     |   0.0 |  6.68
Other   |            | 36.75      |            |       |  1.01

Nlocal:    20000 ave 20000 max 20000 min
Histogram: 1 0 0 0 0 0 0 0 0 0
Nghost:    8922 ave 8922 max 8922 min
Histogram: 1 0 0 0 0 0 0 0 0 0
Neighs:    169054 ave 169054 max 169054 min
Histogram: 1 0 0 0 0 0 0 0 0 0

Total # of neighbors = 169054
Ave neighs/atom = 8.4527
Neighbor list builds = 100000
Dangerous builds = 99900

write_restart 	out.restart.sys.final.${temp}
write_restart 	out.restart.sys.final.0.7
unfix intg
unfix ploadx
undump  trj
uncompute denprof
unfix   denprof

next    t
jump    SELF temperatureloop
variable t loop 10
variable  temp  equal 0.1+($t-1)*0.1
variable  temp  equal 0.1+(8-1)*0.1

#OUTPUT
# density profile
compute denprof all chunk/atom bin/1d x center ${xbin}
compute denprof all chunk/atom bin/1d x center 0.05
fix     denprof all ave/chunk 100 1000 500000 denprof density/number file out.profile.density.${temp}.data
fix     denprof all ave/chunk 100 1000 500000 denprof density/number file out.profile.density.0.8.data

#OUTPUT
log   log.lammps.${temp}
log   log.lammps.0.8
