thermo 1000
thermo_style custom step temp press pe etotal enthalpy pxx pyy pzz
dump 		trj all atom 500 out.sys_nvt.${temp}.lammpstrj
dump 		trj all atom 500 out.sys_nvt.0.6.lammpstrj
restart 100000 out.restart1.${temp} out.restart2.${temp}
restart 100000 out.restart1.0.6 out.restart2.${temp}
restart 100000 out.restart1.0.6 out.restart2.0.6

fix ploadx all balance 10000 1.05 shift x 20 1.05
fix intg all nvt temp ${temp} ${temp} ${tdump}
fix intg all nvt temp 0.6 ${temp} ${tdump}
fix intg all nvt temp 0.6 0.6 ${tdump}
fix intg all nvt temp 0.6 0.6 1
run ${Nrun}
run 1000000
Per MPI rank memory allocation (min/avg/max) = 12.56 | 12.56 | 12.56 Mbytes
Step Temp Press PotEng TotEng Enthalpy Pxx Pyy Pzz 
 5000000   0.49824129  0.075692903  -0.34918677    0.3981378   0.80849011   0.07480653  0.074830992  0.077441187 
 5001000   0.60825887   0.10648568  -0.32878076   0.58356192    1.1608504   0.10636903   0.10562054   0.10746745 
 5002000   0.60124078   0.10466328  -0.32867759   0.57313849    1.1405473   0.10547727   0.10516575   0.10334682 
 5003000    0.5974788   0.10044943  -0.33389889   0.56227449    1.1068389   0.10066129   0.10163924  0.099047773 
 5004000   0.59602318   0.10163119  -0.33237298   0.56161709    1.1125881    0.1027546   0.10134132   0.10079766 
 5005000   0.59565938     0.102265  -0.33054912   0.56289528    1.1173024   0.10026409    0.1040526   0.10247832 
 5006000   0.59629402  0.099214613  -0.33220853   0.56218778    1.1000578  0.099821055   0.10172386  0.096098929 
 5007000   0.59696567    0.1032166  -0.32948304   0.56592069    1.1254866   0.10379086    0.1038165   0.10204244 
 5008000   0.60369374    0.1032209  -0.33170542   0.57378991    1.1333791   0.10149432   0.10486901   0.10329936 
 5009000   0.60421109   0.10259704  -0.33221305   0.57405827    1.1302654   0.10149102   0.10413237   0.10216772 
 5010000   0.60103177   0.10315202   -0.3296656   0.57183698    1.1310528   0.10361688   0.10463597   0.10120322 
 5011000   0.59637418  0.099500547  -0.33267889   0.56183766    1.1012578    0.1014598  0.098730019  0.098311819 
 5012000   0.59477971  0.099682843  -0.33188303   0.56024193    1.1006504   0.10083341  0.096117122     0.102098 
 5013000    0.6023084   0.10392897  -0.32873189   0.57468553    1.1381134   0.10140672   0.10305592   0.10732426 
 5014000   0.60249413   0.10469428  -0.32848532   0.57521069    1.1427875   0.10427464   0.10263272   0.10717547 
 5015000   0.59942219   0.10539604  -0.32714447   0.57194385    1.1433251   0.10335762   0.10637398   0.10645652 
 5016000   0.60044998   0.10213276     -0.33331   0.56731994    1.1210101   0.10301082   0.10052094   0.10286651 
 5017000   0.59195005      0.10267  -0.32913741   0.55874326    1.1153459   0.10135663   0.10474015   0.10191323 
 5018000   0.59766778   0.10275255  -0.33039063   0.56606622    1.1231164   0.10083558   0.10194212   0.10547997 
 5019000   0.60175027    0.1010114  -0.33186396   0.57071631    1.1183272   0.10116634  0.098489454   0.10337841 
 5020000   0.60427059   0.10165659  -0.32994355   0.57641701    1.1275257   0.10470524  0.098319592   0.10194494 
 5021000   0.60302015   0.10136582  -0.33233397   0.57215103    1.1216834   0.09963588   0.10065053   0.10381105 
 5022000   0.60084373   0.10200301  -0.33163072   0.56958982    1.1225766   0.10322704   0.09941759    0.1033644 
 5023000   0.60371167   0.10383749  -0.33004118   0.57548105     1.138413   0.10372142   0.10581074    0.1019803 
 5024000   0.59125721   0.10221111  -0.32757158   0.55926988    1.1133848   0.10189125   0.10450698   0.10023509 
 5025000   0.59715762   0.10144821  -0.33128296   0.56440868    1.1143877  0.099212234   0.10316991   0.10196249 
 5026000   0.59600301   0.10378278  -0.32954697   0.56441284    1.1270482   0.10416399   0.10265395   0.10453041 
 5027000   0.60126156   0.10406729  -0.33378466   0.56806258    1.1322404   0.10264196   0.10470781   0.10485211 
 5028000    0.5987557   0.10040416  -0.33123269   0.56685596    1.1111749  0.098886786    0.1024881  0.099837598 
 5029000   0.59312127   0.10276895   -0.3305534   0.55908402    1.1162231   0.10321116   0.10013689    0.1049588 
 5030000   0.60021088   0.10252075    -0.329655    0.5706163    1.1264099   0.10390188   0.10268398    0.1009764 
 5031000   0.59947548   0.10330264  -0.32977087   0.56939739    1.1294298   0.10411247   0.10257569   0.10321976 
 5032000    0.6020532   0.10298318  -0.32995888   0.57307577    1.1313763    0.1044574   0.10061853    0.1038736 
 5033000   0.59483827   0.10185131  -0.33366123   0.55855156    1.1107159  0.099007715   0.10446062   0.10208559 
 5034000   0.59712556   0.10057914  -0.33202345   0.56362011    1.1088877  0.098570249   0.10184164   0.10132554 
 5035000   0.60040558   0.10304546  -0.33045702   0.57010632    1.1287445   0.10509701   0.10145057   0.10258881 
 5036000   0.59981668   0.10091234  -0.33157967   0.56810036    1.1151743  0.099341127   0.10289109   0.10050481 
 5037000   0.60092211   0.10244255  -0.33004031   0.57129778    1.1266674   0.10094979   0.10143812   0.10493975 
 5038000   0.60150901   0.10191736  -0.33304506   0.56917333    1.1216957  0.099998711   0.10638878  0.099364595 
 5039000   0.59572442   0.10321216  -0.32993924   0.56360272    1.1231446   0.10582592   0.10117954   0.10263101 
 5040000   0.60221582   0.10268882  -0.33151995   0.57175862    1.1284633   0.10345829   0.10174421   0.10286395 
 5041000   0.60666766    0.1006982  -0.33029795   0.57965804     1.125571   0.10188323   0.10178818  0.098423182 
 5042000   0.59897923   0.10365179  -0.32880538   0.56961855    1.1315438   0.10392015    0.1006412   0.10639401 
 5043000   0.60280064   0.10152193  -0.33152037   0.57263538     1.123014   0.10338229   0.09733237   0.10385112 
 5044000   0.60309192   0.10351428  -0.33018853   0.57440412    1.1355838   0.10431004    0.1001249   0.10610789 
 5045000   0.59623557   0.10467645  -0.33022437   0.56408427    1.1315645   0.10623303   0.10223899   0.10555733 
 5046000    0.6000345   0.10270292  -0.33116546   0.56884128    1.1256224    0.1006035   0.10341671   0.10408856 
 5047000    0.6038301   0.10340195  -0.33020021   0.57549965    1.1360704   0.10453602   0.10250952   0.10316031 
 5048000   0.60102735   0.10440431  -0.33060352   0.57089243    1.1368972   0.10442577   0.10564228   0.10314486 
 5049000   0.60204229     0.104332  -0.33184362   0.57117466    1.1367875   0.10299723   0.10597009   0.10402867 
 5050000   0.60154971   0.10404426  -0.33139214   0.57088732    1.1349402   0.10353243   0.10460511   0.10399523 
 5051000   0.60400133   0.10388296  -0.32761981   0.57833689    1.1415154   0.10532626   0.10308403   0.10323859 
 5052000   0.60397171   0.10439865  -0.33144308   0.57446919    1.1404434   0.10756822   0.10124765    0.1043801 
 5053000   0.59717948   0.10393288   -0.3320531   0.56367134    1.1271205   0.10375863   0.10603503   0.10200499 
 5054000   0.59565866   0.10046414  -0.33096002   0.56248329    1.1071274   0.10046312   0.10123314  0.099696171 
 5055000   0.59826798   0.10249752  -0.33083478   0.56652232    1.1221899  0.099597791   0.10344548   0.10444928 
 5056000   0.59701957  0.099500632  -0.33231712   0.56316746    1.1025881  0.098306811   0.10043564  0.099759447 
 5057000    0.5954254  0.098717668  -0.33203802   0.56105542    1.0962314   0.10110209  0.096026511  0.099024401 
 5058000   0.59365764   0.10337162  -0.33303354   0.55740839    1.1178147   0.10266958   0.10505784   0.10238744 
 5059000   0.59937183   0.10307128   -0.3312279   0.56778489     1.126563   0.10299171   0.10331859   0.10290354 
 5060000   0.60005734   0.10367496  -0.32952388   0.57051713     1.132568   0.10375224   0.10320076   0.10407189 
 5061000   0.60348774   0.10295678  -0.33065544    0.5745309    1.1326883   0.10172018   0.10177433   0.10537585 
 5062000   0.60806826   0.10342406  -0.33079959   0.58125719    1.1419478    0.1033455   0.10379243   0.10313426 
 5063000   0.59472642   0.10450179  -0.32647491   0.56557012    1.1321034   0.10294585   0.10351682   0.10704269 
 5064000    0.5975239   0.10210174  -0.33158553   0.56465551    1.1181775    0.1029152   0.10127358   0.10211644 
 5065000   0.59913765   0.10135547  -0.33376634   0.56489521    1.1143715   0.10183521   0.10195704   0.10027417 
 5066000   0.59640793    0.1049242   -0.3301483   0.56441886    1.1332421   0.10458398   0.10503233   0.10515628 
 5067000   0.59639339   0.10246337  -0.32842847   0.56611689    1.1215993   0.10424779   0.10340908  0.099733224 
 5068000   0.59877116   0.10245707  -0.33010163    0.5680102    1.1234585   0.10328234   0.10317537   0.10091351 
 5069000    0.5940338   0.10133813   -0.3327766   0.55822955    1.1076118   0.10335739  0.098507972   0.10214903 
 5070000    0.5982212   0.10404014  -0.33001799   0.56726894    1.1312995   0.10512821   0.10448745   0.10250476 
 5071000   0.59980346   0.10304072   -0.3325062     0.567154    1.1257665   0.10196384   0.10393437   0.10322396 
 5072000   0.59813288   0.10138091  -0.33107329   0.56608117    1.1156953   0.10079078   0.10157289   0.10177906 
 5073000   0.59383953   0.10181602  -0.33122759   0.55948717    1.1114601   0.10164927   0.10130641   0.10249236 
 5074000   0.59906077  0.099186684  -0.33573911   0.56280713    1.1005258  0.097972293   0.10121441  0.098373352 
 5075000   0.59760047   0.10081667  -0.33196798   0.56438791    1.1109432   0.09698297   0.10112847   0.10433857 
 5076000   0.59714322   0.10512956  -0.33070235    0.5649677    1.1349043   0.10377939   0.10875182   0.10285745 
 5077000   0.59342865   0.10176597  -0.33273157   0.55736691    1.1090686   0.10289893   0.10421908  0.098179908 
 5078000   0.59833964   0.10020346  -0.33010922   0.56735537    1.1105862   0.10136957  0.099897785  0.099343023 
 5079000   0.60174895   0.10461017  -0.33072676   0.57185153    1.1389724   0.10296776   0.10693117   0.10393159 
 5080000   0.60387591   0.10161435  -0.33223692   0.57353166    1.1244113   0.10205173   0.10101073   0.10178058 
 5081000    0.5997315   0.10466929  -0.32893859   0.57061368    1.1380551   0.10184106   0.10714042   0.10502641 
 5082000   0.60535621  0.099072617  -0.33216289   0.57582603    1.1129263  0.096612553  0.099913766   0.10069153 
 5083000   0.60113268   0.10357281  -0.32837483    0.5732791    1.1347762   0.10308739   0.10428519   0.10334584 
 5084000   0.59894035   0.10267289  -0.33117662   0.56718898    1.1238073   0.10592552   0.10302725  0.099065895 
 5085000   0.59886249   0.10277103   -0.3303852   0.56786363     1.125014   0.10212685   0.10558041   0.10060581 
 5086000   0.59918598   0.10218303  -0.33465008   0.56408395    1.1180466   0.10323034   0.10119026   0.10212849 
 5087000   0.60084909   0.10016162  -0.33253591   0.56869266    1.1116967  0.099508361  0.099194686   0.10178181 
 5088000   0.59912637   0.10432804  -0.33211849   0.56652614    1.1321175   0.10730918   0.10532367   0.10035125 
 5089000   0.59912306   0.10075342  -0.33279742   0.56584223    1.1120546  0.099199748   0.10093269   0.10212782 
 5090000   0.59672879   0.10366505  -0.32951523    0.5655332    1.1275303   0.10601462   0.10268769   0.10229285 
 5091000   0.59835813    0.1031615  -0.33203674   0.56545558    1.1247228     0.103644   0.10257083   0.10326966 
 5092000   0.60838193   0.10568774  -0.33099571   0.58153155    1.1544942   0.10545162   0.10403021   0.10758139 
 5093000   0.60241892   0.10291956  -0.33168198   0.57190121    1.1298568   0.10342613   0.10196026   0.10337228 
 5094000   0.60171507   0.10299056  -0.33106479   0.57146268    1.1298032  0.099979426   0.10421886   0.10477341 
 5095000   0.59778147   0.10288883  -0.32839022   0.56823715    1.1260262   0.10450808    0.1016491   0.10250932 
 5096000   0.59691409   0.10108309  -0.33173321   0.56359316    1.1115928   0.10146991   0.10220181  0.099577567 
 5097000   0.59634818   0.10372709  -0.32997707   0.56450047    1.1268339   0.10468622   0.10181021   0.10468485 
 5098000   0.60394427   0.10136176  -0.32998414   0.57588697    1.1253973   0.10072752   0.10378161  0.099576157 
 5099000   0.60197758   0.10391774  -0.32844335   0.57447787    1.1378449   0.10357106   0.10690942   0.10127274 
 5100000   0.60445856   0.10649765  -0.32883599   0.57780652    1.1551599   0.10793732   0.10639209   0.10516353 
 5101000    0.6022095   0.10141606  -0.32793639    0.5753327    1.1251374    0.1028074   0.10319787  0.098242913 
 5102000   0.60666807   0.10494333  -0.33109937   0.57885724    1.1477843   0.10192206   0.10608004   0.10682789 
 5103000   0.59918325   0.10282996  -0.33392772   0.56480221     1.122272   0.10361943   0.10195859   0.10291186 
 5104000    0.5974572    0.1024475     -0.33094   0.56520099    1.1205974   0.10174435   0.10406078   0.10153737 
 5105000   0.59880701  0.099702664  -0.33215979   0.56600582    1.1065217   0.10144067  0.099228416  0.098438901 
 5106000   0.59743092   0.10267608  -0.33255503   0.56354654    1.1201821    0.1016309   0.10116304   0.10523428 
 5107000   0.60234494   0.10491735  -0.32927693    0.5741953    1.1429815   0.10293034   0.10635845   0.10546326 
 5108000   0.60332203   0.10382189   -0.3295679    0.5753699    1.1382173   0.10185659   0.10384437   0.10576472 
 5109000   0.60152203   0.10238039  -0.33132663    0.5709113    1.1259439   0.10137207  0.099858187   0.10591091 
 5110000   0.59834804   0.10209944  -0.32972171   0.56775548     1.121265  0.099686066   0.10599726   0.10061499 
 5111000   0.60078163   0.10130023  -0.33222549   0.56890189    1.1180787   0.10157404   0.10087333   0.10145332 
 5112000   0.60161902   0.10418632  -0.33073871    0.5716447    1.1364677    0.1038664   0.10535409   0.10333846 
 5113000   0.59916675   0.10304401  -0.32866377   0.57004141    1.1286717   0.10048549   0.10490531   0.10374123 
 5114000   0.60142874   0.10616736  -0.32918725   0.57291075    1.1484736   0.10400777   0.10830156   0.10619276 
 5115000   0.59888728   0.10441557  -0.33051402   0.56777198    1.1338379   0.10368935   0.10446136   0.10509599 
 5116000   0.59674967   0.10388076  -0.32773263   0.56734712    1.1305137   0.10435734   0.10158606   0.10569887 
 5117000   0.59706638   0.10144231  -0.32972555   0.56582924    1.1157763   0.10365337   0.10102625  0.099647314 
 5118000   0.59506303  0.098681199   -0.3338007   0.55874921    1.0937275  0.099478351  0.099907204  0.096658043 
 5119000   0.59576932   0.10258002  -0.33038952   0.56321978    1.1193346   0.10276425   0.10364911   0.10132671 
 5120000   0.60275638   0.10141728  -0.32978329   0.57430606    1.1241174   0.10038426   0.10251208   0.10135551 
 5121000   0.60262094   0.10373803  -0.32930099   0.57458522     1.136978   0.10700299   0.10350439    0.1007067 
 5122000   0.59960335   0.10257317   -0.3290384   0.57032165    1.1263994   0.10267205   0.10337918   0.10166828 
 5123000   0.60205274   0.10039215  -0.33166961   0.57136435    1.1156182  0.097800989  0.099901278   0.10347419 
 5124000   0.59910489   0.10267627  -0.33171385   0.56689855    1.1235352   0.10441612   0.10152358    0.1020891 
 5125000   0.59833389   0.10039394  -0.33052981   0.56692614    1.1111897  0.099235781   0.10017278   0.10177327 
 5126000    0.5949461   0.10260143  -0.33044076   0.56193376    1.1181647   0.10416303   0.10372083  0.099920418 
 5127000   0.59989215   0.10206437  -0.32963623   0.57015701    1.1234764   0.10221542  0.099377848   0.10459984 
 5128000   0.60096024   0.10200297  -0.33049754   0.57089775    1.1238843   0.10470742   0.10181301  0.099488474 
 5129000   0.60205663    0.1045767  -0.32830505   0.57473474    1.1416742   0.10734782   0.10601174   0.10037054 
 5130000   0.60195288   0.10251748  -0.33229225   0.57059192    1.1263677    0.1033261   0.10270739   0.10151896 
 5131000   0.59870843   0.10216917  -0.33188024    0.5661375     1.120025    0.1043639   0.10205551    0.1000881 
 5132000   0.59795123   0.10188159  -0.33138307   0.56549892    1.1178274   0.10022798   0.10514316   0.10027363 
 5133000   0.59790414    0.1012853  -0.33022033   0.56659104    1.1156869   0.10162668    0.1033046  0.098924628 
 5134000   0.60038137   0.10173298  -0.33310798   0.56741906    1.1189419   0.10273209   0.10474581  0.097721055 
 5135000   0.59623792   0.10322796  -0.33097391   0.56333824    1.1229658   0.10431015  0.099836895   0.10553684 
 5136000   0.59744983   0.10371998  -0.32880954    0.5673204    1.1296153   0.10217043   0.10384663   0.10514288 
 5137000   0.59865894   0.10051392  -0.32863612   0.56930739    1.1142214  0.099186632  0.098875364   0.10347977 
 5138000   0.59831097   0.10189653  -0.33227936   0.56514222    1.1175517   0.10054116   0.10100883   0.10413959 
 5139000   0.60466806   0.10452141  -0.33235415   0.57460259    1.1412423   0.10487121    0.1052884   0.10340461 
 5140000   0.60123314   0.10459079  -0.32874596   0.57305866    1.1400745    0.1054792   0.10260672   0.10568645 
 5141000    0.5982177   0.10129486  -0.33177474   0.56550695    1.1146546  0.097944455   0.10461706   0.10132307 
 5142000   0.59640745   0.10051854  -0.33230116   0.56226528    1.1072043  0.099797799   0.10251145  0.099246358 
 5143000   0.59762356   0.10150699  -0.33060065   0.56578987    1.1160875  0.099180206   0.10372169   0.10161907 
 5144000   0.59788278   0.10352468   -0.3293232   0.56745612    1.1286923   0.10521243   0.10164491   0.10371671 
 5145000   0.59643839   0.10347553  -0.33181697   0.56279589    1.1237656   0.10473244   0.10391854    0.1017756 
 5146000   0.60038938   0.10333884  -0.32866256   0.57187649    1.1321051    0.1016275   0.10318604   0.10520299 
 5147000   0.60168975   0.10302531  -0.32994764   0.57254186    1.1310708   0.10164033   0.10672355   0.10071206 
 5148000   0.59799903   0.10477787  -0.33088475   0.56606895     1.134099   0.10660837   0.10417022   0.10355503 
 5149000   0.59943155   0.10391022  -0.32842652   0.57067585    1.1340021   0.10447992   0.10269439   0.10455635 
 5150000   0.60618111   0.10359361  -0.32890777   0.58031844    1.1419283   0.10240783   0.10200569   0.10636732 
 5151000   0.60397017   0.10293425  -0.33348344   0.57242652    1.1304618   0.10649267    0.1009568   0.10135328 
 5152000   0.60009147   0.10263166  -0.33295501    0.5671372     1.123532   0.10016257   0.10288321   0.10484921 
 5153000   0.59814326   0.10234637  -0.33206115   0.56510889    1.1199571   0.10352331    0.1014545    0.1020613 
 5154000   0.59570846  0.099153745  -0.33116039   0.56235762    1.0998977  0.097042264  0.099215151   0.10120382 
 5155000   0.59791476   0.10249127   -0.3304399   0.56638739    1.1220211   0.10321158   0.10364539   0.10061685 
 5156000   0.59756346   0.10248555  -0.33322351   0.56307686    1.1186796   0.10546678   0.10408949  0.097900366 
 5157000   0.60316663   0.10232328  -0.33138824   0.57331648    1.1280395   0.10288737   0.10169678   0.10238569 
 5158000   0.60318375   0.10018093  -0.33310524   0.57162515    1.1147339   0.10063628  0.099498377   0.10040814 
 5159000   0.60006867   0.10153956  -0.33051116   0.56954684    1.1200211   0.10182854   0.10017206   0.10261807 
 5160000   0.60010564   0.10231103  -0.33235844   0.56775501    1.1224116   0.10133802   0.10195095   0.10364411 
 5161000   0.60579844   0.10511632  -0.33072737   0.57792486    1.1477897   0.10821162   0.10239618   0.10474115 
 5162000   0.60313254   0.10207001  -0.33249712   0.57215646    1.1255064   0.10225546   0.10128057   0.10267401 
 5163000   0.60544605   0.10329317  -0.33136921   0.57675446    1.1367355   0.10273683   0.10277504   0.10436765 
 5164000   0.60187361   0.10371306  -0.33157324   0.57119204    1.1334494   0.10433278   0.10346991    0.1033365 
 5165000   0.59844444   0.10356858  -0.32863346   0.56898831    1.1304624   0.10333499   0.10514027   0.10223047 
 5166000   0.59462358   0.10108825  -0.33082808   0.56106269    1.1090903   0.10145833   0.10061065   0.10119578 
 5167000    0.5945518   0.10008604   -0.3332752   0.55850792    1.1011022   0.10103819  0.099620326  0.099599594 
 5168000   0.59760231   0.10198107  -0.32995253   0.56640612    1.1192739   0.10163443   0.10189967   0.10240912 
 5169000   0.59769342   0.10321457  -0.33031885   0.56617645    1.1257314   0.10489479   0.10084252   0.10390639 
 5170000   0.60363173   0.10465741  -0.32966259   0.57573973    1.1431167   0.10689717   0.10459263   0.10248244 
 5171000   0.60495899   0.10370442  -0.33115916   0.57623395    1.1384445   0.10285657   0.10466444   0.10359224 
 5172000   0.60343135   0.10083164  -0.33158399   0.57351778    1.1201542   0.10060442   0.10300117  0.098889336 
 5173000   0.60256708   0.10141775  -0.33205755   0.57174787    1.1215617   0.10363207   0.10169829  0.098922887 
 5174000   0.59586816   0.10148628  -0.33073318   0.56302437    1.1132097   0.10008452   0.10137573   0.10299858 
 5175000   0.59537224   0.10276383  -0.33262669   0.56038702    1.1174984   0.10286981   0.10416999   0.10125169 
 5176000   0.59857754   0.10215105  -0.32916251    0.5686589    1.1224482    0.1050483   0.10370375  0.097701103 
 5177000    0.6020118   0.10082883  -0.33258133   0.57039121    1.1170124   0.10185515   0.10008149   0.10054985 
 5178000   0.60470715   0.10307795  -0.33192456   0.57509081    1.1339051   0.10440461   0.10374799   0.10108125 
 5179000   0.60967055   0.10643186  -0.33088904   0.58357106    1.1605678   0.10484626   0.10577536   0.10867395 
 5180000   0.60464043   0.10376164  -0.33176865   0.57514664    1.1376674   0.10175824   0.10271603   0.10681066 
 5181000   0.60087842   0.10395446  -0.33122589   0.57004668    1.1336128   0.10415376   0.10206852   0.10564109 
 5182000   0.59659679   0.10236351   -0.3287832   0.56606723    1.1210083   0.10469411   0.10010227   0.10229415 
 5183000   0.59691488   0.10275352   -0.3311411   0.56418646    1.1212419   0.10165086   0.10523615   0.10137356 
 5184000   0.59416229   0.10187309  -0.33040874   0.56079013    1.1130725   0.10036819   0.10215565   0.10309541 
 5185000   0.59600657    0.1019489  -0.32974706   0.56421809    1.1169115   0.10192602   0.10071715   0.10320353 
 5186000   0.59821283   0.10267744  -0.32912572   0.56814866    1.1247917   0.10246832   0.10108117   0.10448283 
 5187000   0.60138519   0.10039204  -0.33565744   0.56637524    1.1106284   0.10070862    0.1024426    0.0980249 
 5188000   0.59825986    0.1025768  -0.33008537   0.56725955    1.1233569   0.10109088   0.10542662   0.10121289 
 5189000    0.6011461   0.10226875   -0.3314726   0.57020147    1.1246288   0.10312458   0.10071507   0.10296658 
 5190000   0.60137042   0.10502519  -0.32853742   0.57347311    1.1428439   0.10498022   0.10814252   0.10195284 
 5191000   0.60183104   0.10159869  -0.33001222    0.5726892     1.123484   0.10398939   0.10038242   0.10042426 
 5192000   0.60274765   0.10583258  -0.33093824   0.57313803    1.1468859   0.10472267   0.10539209     0.107383 
 5193000   0.60448399   0.10091147  -0.33047978   0.57620087      1.12327  0.099759339   0.10260045   0.10037461 
 5194000   0.60766455   0.10253901  -0.33313834   0.57831291    1.1342055   0.10184596   0.10189426   0.10387682 
 5195000   0.60195776   0.10137025  -0.33059251   0.57229899    1.1218553   0.10329245  0.099588712   0.10122957 
 5196000    0.6000918   0.10032368  -0.33245916   0.56763353    1.1115161   0.10027315   0.10252681  0.098171076 
 5197000   0.59758195   0.10094067  -0.33220168   0.56412642    1.1113539   0.10355441  0.099846527  0.099421067 
 5198000   0.59423382   0.10028196  -0.32985981   0.56144635    1.1051028   0.10060259   0.10300011  0.097243173 
 5199000   0.59786113   0.10218757  -0.33043453   0.56631232    1.1202996   0.10284205   0.10273137   0.10098929 
 5200000    0.5986265   0.10128926  -0.33140269   0.56649215    1.1156094   0.10397428   0.10039972  0.099493772 
 5201000   0.60289646   0.10327016  -0.33039007   0.57390941    1.1337657   0.10503889   0.10223908   0.10253249 
 5202000   0.60126639   0.10299629  -0.33163317   0.57022133    1.1285929   0.10253878   0.10505142   0.10139868 
 5203000   0.59988806   0.10340538  -0.32767284   0.57211427    1.1327036   0.10253094   0.10436608   0.10331911 
 5204000   0.60042568   0.10354713  -0.33250094   0.56809255    1.1294504   0.10269519   0.10262931   0.10531687 
 5205000   0.59712153   0.10307258  -0.33216719   0.56347032    1.1222555    0.1061271   0.10329341  0.099797233 
 5206000   0.59834812   0.10122563  -0.33291163   0.56456567     1.113338   0.10306175   0.10058252    0.1000326 
 5207000   0.59393851   0.10287729  -0.33239045   0.55847276    1.1161992   0.10007122   0.10482734    0.1037333 
 5208000   0.59413211   0.10073152  -0.32932979   0.56182381    1.1079174   0.10055352   0.10002517   0.10161587 
 5209000   0.59825864   0.10145986   -0.3318789    0.5654642    1.1155063   0.10153302   0.10145121   0.10139534 
 5210000   0.59743879   0.10437906  -0.32978196   0.56633142    1.1321994   0.10399077   0.10579722   0.10334919 
 5211000   0.59399178   0.10135927  -0.32773088   0.56321224    1.1127091   0.10185529   0.10391223  0.098310279 
 5212000   0.60230719   0.10301738  -0.32826765   0.57514795    1.1336338   0.10023162   0.10551458   0.10330592 
 5213000   0.60399744   0.10383312  -0.32985408   0.57609678     1.139005    0.1044371   0.10611701   0.10094525 
 5214000   0.60300844    0.1038094  -0.33057929   0.57388815    1.1366678   0.10477254   0.10393838   0.10271727 
 5215000   0.60096996   0.10252282  -0.33280442   0.56860545    1.1244102   0.10224208  0.099852512   0.10547388 
 5216000   0.59658187   0.10235205  -0.33398441   0.56084366    1.1157226   0.10358703   0.10096592   0.10250319 
 5217000    0.5978635   0.10045413  -0.33037053   0.56637988    1.1109697   0.10009205   0.10070439   0.10056596 
 5218000   0.59895695   0.10478496  -0.32895026   0.56944024    1.1375087   0.10544126   0.10588998   0.10302364 
 5219000   0.60238108   0.10223082  -0.33292903   0.57059741    1.1248191   0.10220423   0.10268358   0.10180464 
 5220000   0.60173625   0.10259738  -0.33125471   0.57130453    1.1275135   0.10274804   0.10479378   0.10025031 
 5221000    0.6025271   0.10383276  -0.32909278   0.57465267     1.137559    0.1033847   0.10594133   0.10217224 
 5222000   0.60145245   0.10348411  -0.32845502   0.57367854    1.1346947   0.10227283   0.10384107   0.10433843 
 5223000   0.59198794   0.10625809  -0.32763918   0.56029833    1.1363531   0.10470883   0.10546743   0.10859802 
 5224000   0.59849259   0.10309429  -0.33073837   0.56695563    1.1258585   0.10284269   0.10555193   0.10088826 
 5225000   0.60195334   0.10541216  -0.32738782   0.57549705    1.1469657    0.1054908   0.10456015   0.10618554 
 5226000   0.60105883   0.10335643  -0.33196981   0.56957336    1.1298973   0.10388551   0.10353192   0.10265185 
 5227000   0.60265961   0.10356866  -0.33162127   0.57232294    1.1337975   0.10294067   0.10316187   0.10460344 
 5228000   0.60062993   0.10474616  -0.33134004   0.56955981    1.1374179   0.10452036    0.1032192   0.10649892 
 5229000     0.600343   0.10155959  -0.33377684   0.56669264    1.1172755  0.099672964    0.1026056    0.1024002 
 5230000   0.59830145   0.10185212  -0.33183673   0.56557058    1.1177393   0.10169139    0.0984415   0.10542349 
 5231000   0.59618187   0.10197235  -0.32971173   0.56451637    1.1173369   0.10591118   0.10111311  0.098892763 
 5232000    0.5927377   0.10197706  -0.33162489   0.55743721    1.1102833   0.10275073  0.097438239   0.10574221 
 5233000   0.60108898   0.10420091  -0.33072549    0.5708629    1.1357651   0.10433166   0.10605275   0.10221833 
 5234000   0.60031592   0.10422343  -0.33246282   0.56796605    1.1329903   0.10747696    0.1040135   0.10117983 
 5235000   0.59632418   0.10004982    -0.330502   0.56393954    1.1063375   0.10191442  0.098905993  0.099329036 
 5236000   0.59949539   0.10175835  -0.33009482   0.56910331    1.1207636   0.10279875   0.10104592   0.10143037 
 5237000   0.60094731   0.10203329  -0.33311162   0.56826428    1.1214152   0.10426059   0.10128509    0.1005542 
 5238000   0.59708622   0.10135726  -0.33241558   0.56316897    1.1126549  0.099505904   0.10016123   0.10440465 
 5239000   0.60655115   0.10508893  -0.33157867   0.57820256    1.1479189    0.1025443    0.1076081   0.10511439 
 5240000   0.60839146   0.10578607   -0.3309982   0.58154336    1.1550391   0.10133189   0.10800837   0.10801797 
 5241000    0.6048057   0.10461664  -0.33212477   0.57503843    1.1421944   0.10559953    0.1014837   0.10676669 
 5242000   0.59850952   0.10335167  -0.33058445   0.56713495    1.1274331  0.099543443   0.10551134   0.10500021 
 5243000   0.59738573   0.10131018  -0.32856433   0.56746945    1.1167002   0.10168488   0.10193986   0.10030581 
 5244000   0.60119961   0.10537848  -0.33077154   0.57098278    1.1422688   0.10472455    0.1084865   0.10292439 
 5245000   0.60012444   0.10386805  -0.33050098   0.56964067    1.1327383    0.1030592   0.10365452   0.10489044 
 5246000    0.5995956   0.10548351  -0.32907961   0.57026882    1.1421243    0.1039929   0.10416297   0.10829466 
 5247000   0.60218977    0.1023397  -0.33487983   0.56835966    1.1231717  0.098918301   0.10230188   0.10579892 
 5248000   0.59849733   0.10418859  -0.33045834   0.56724276    1.1320782   0.10580508   0.10269708   0.10406362 
 5249000   0.60097941  0.099270755  -0.33561086   0.56581318    1.1039876  0.098245394   0.10047372  0.099093153 
 5250000   0.59861372   0.10132403  -0.33288185   0.56499384    1.1142996   0.10086868   0.10368439  0.099419005 
 5251000   0.59547934   0.10252393  -0.32879182   0.56438253    1.1201933   0.10367578   0.10211895   0.10177707 
 5252000    0.5928762   0.10193512  -0.33022904   0.55904079    1.1116595    0.1038171   0.10076689   0.10122138 
 5253000   0.60050415   0.10311304  -0.32980651   0.57090467    1.1299092   0.10141723   0.10257369   0.10534819 
 5254000   0.59988523     0.104114  -0.32680958   0.57297327    1.1374043   0.10200525   0.10314395   0.10719281 
 5255000    0.6025449    0.1044139  -0.33065231   0.57311984    1.1391767   0.10357256   0.10598628   0.10368285 
 5256000   0.60090985   0.10203673   -0.3282538   0.57306591    1.1262354    0.1010512   0.10317279   0.10188618 
 5257000   0.59982107   0.10264106  -0.32977335   0.56991326     1.126359   0.10097929   0.10482356   0.10212032 
 5258000   0.60498389   0.10348834  -0.32877979   0.57865067    1.1396898     0.101386   0.10586468   0.10321434 
 5259000   0.60631688   0.10176864  -0.33088664   0.57854321    1.1302594   0.10040363   0.10121248   0.10368982 
 5260000   0.60044577   0.10041725  -0.33020902    0.5704146    1.1148045   0.10178074   0.10023697  0.099234035 
 5261000   0.59819386   0.10335654  -0.32887953   0.56836639     1.128691   0.10456188   0.10214128   0.10336646 
 5262000    0.5978307   0.10209271  -0.33161712   0.56508409    1.1185571   0.10197767   0.10392126   0.10037922 
 5263000   0.59510693   0.10541183  -0.32825066    0.5643651     1.135832    0.1083187    0.1028312   0.10508558 
 5264000   0.59750405   0.10167547   -0.3320614   0.56414986    1.1153609   0.10269089   0.10155266   0.10078286 
 5265000   0.60446445   0.10603042  -0.33029373   0.57635762    1.1511781    0.1044191   0.10543767   0.10823451 
 5266000   0.60222622   0.10460354  -0.32953314   0.57376103     1.140846   0.10428116   0.10701928   0.10251019 
 5267000   0.59986787   0.10106405  -0.32963172    0.5701251    1.1180214   0.10246015   0.10030106   0.10043094 
 5268000   0.59656662   0.10182274  -0.33079952   0.56400568    1.1160151   0.10052323   0.10202723   0.10291776 
 5269000   0.59814862   0.10271268  -0.32828592   0.56889215    1.1257262   0.10492418   0.10219441   0.10101944 
 5270000   0.60278884   0.10420478  -0.33156616   0.57257189     1.137495    0.1022936   0.10288462   0.10743612 
 5271000   0.60173849   0.10349678  -0.32938878   0.57317384    1.1342587   0.10381068   0.10371635   0.10296332 
 5272000   0.59937575   0.10423404  -0.32989358   0.56912508    1.1342069   0.10278034   0.10313376   0.10678802 
 5273000   0.60031249   0.10302676  -0.33174836   0.56867535    1.1272121   0.10540339   0.10270613   0.10097076 
 5274000   0.60029716    0.1031093  -0.33047357   0.56992715    1.1289114    0.1037854   0.10306237   0.10248014 
 5275000   0.59687604   0.10357339  -0.33170709    0.5635622    1.1250624   0.10599516   0.10331495   0.10141005 
 5276000   0.59978271   0.10204499  -0.33019162   0.56943746    1.1226518   0.10571551  0.099537845   0.10088162 
 5277000   0.60510054   0.10243239   -0.3318315   0.57577393    1.1310885   0.10227964  0.099654795   0.10536274 
 5278000     0.599918   0.10344755  -0.32827258   0.57155942    1.1323774   0.10505754   0.10007063   0.10521447 
 5279000   0.60278608    0.1038425  -0.32887339   0.57526052    1.1382196   0.10193507   0.10398945   0.10560297 
 5280000   0.60064241   0.10203811  -0.33114895   0.56976962    1.1229467   0.10254489   0.10296483   0.10060462 
 5281000   0.60125637   0.10443409  -0.32797407   0.57386539    1.1400317   0.10246792   0.10491721   0.10591715 
 5282000    0.6007688    0.1009511  -0.33242811   0.56868003    1.1159641  0.098709776   0.10211704   0.10202649 
 5283000   0.60354091   0.10567071  -0.33006202   0.57520408    1.1480744   0.10751341   0.10656588   0.10293283 
 5284000   0.60200998   0.10204569  -0.33003929   0.57293052    1.1261486   0.10055234   0.10128069   0.10430403 
 5285000   0.60434629   0.10247546  -0.33109412   0.57537998     1.130928   0.10297236   0.10023842   0.10421559 
 5286000   0.60161706   0.10139805  -0.33213272   0.57024775    1.1199548   0.10210542   0.10023055   0.10185818 
 5287000    0.5988709  0.099942839  -0.33358665   0.56467479    1.1064928    0.1019186  0.097773162   0.10013676 
 5288000   0.59280905   0.10240992  -0.32915906   0.56001005    1.1152028   0.10187433   0.10462357   0.10073186 
 5289000   0.59204105   0.10221345  -0.33129733   0.55671985    1.1108475   0.10163124   0.10282853    0.1021806 
 5290000    0.5955287   0.10158316  -0.33106497   0.56218342     1.112894   0.10042015   0.10219107   0.10213826 
 5291000   0.59977596  0.098445621  -0.33432647   0.56529248    1.0989936  0.098018943   0.10040822  0.096909696 
 5292000   0.59988493   0.10119998  -0.33216455   0.56761785    1.1162511  0.098494791   0.10098755    0.1041176 
 5293000   0.60491898   0.10135631  -0.33314451    0.5741886    1.1236694    0.1037328  0.098486496   0.10184962 
 5294000   0.59832081   0.10632193  -0.32815751   0.56927883    1.1456796   0.10592073    0.1064718   0.10657326 
 5295000   0.60238713   0.10455245  -0.32927099   0.57426453    1.1410725   0.10461053   0.10742342   0.10162339 
 5296000   0.60387568   0.10503309  -0.33003913    0.5757291    1.1451427   0.10676655   0.10519023   0.10314249 
 5297000   0.60875253   0.10491003  -0.33116986   0.58191328    1.1506598   0.10546783   0.10524689   0.10401536 
 5298000   0.60461889   0.10345001  -0.32884438   0.57803861    1.1388699   0.10203638   0.10396756   0.10434609 
 5299000   0.60237274   0.10261317  -0.33142493   0.57208901    1.1283836   0.10425032   0.10290319   0.10068599 
 5300000   0.60484435   0.10463388  -0.32994904   0.57727212    1.1445215   0.10272981   0.10566147   0.10551035 
 5301000    0.6030414   0.10279922  -0.33079948   0.57371739    1.1310206   0.10147862   0.10415748   0.10276156 
 5302000   0.60131609   0.10210254  -0.33367512   0.56825393    1.1217802   0.10346124  0.098953968   0.10389241 
 5303000   0.59721216   0.10250132  -0.32856911   0.56720434    1.1228925    0.1016569    0.1022554   0.10359165 
 5304000    0.5981265   0.10569403  -0.32692776   0.57021712    1.1432139   0.10603709   0.10603459    0.1050104 
 5305000   0.59434148   0.10296291  -0.33180128   0.55966637     1.117857   0.10338878   0.10581825  0.099681698 
 5306000   0.59463041   0.10315273   -0.3319452   0.55995582    1.1191755   0.10154999   0.10424868   0.10365954 
 5307000   0.59547643   0.10256241  -0.33229901   0.56087097    1.1168904   0.10301142   0.10209325   0.10258255 
 5308000   0.59907697    0.1030039  -0.33100391   0.56756661    1.1259794   0.10421391   0.10408184   0.10071595 
 5309000   0.59915252   0.10419213  -0.32939153   0.56929232    1.1341469   0.10364421   0.10487624   0.10405593 
 5310000   0.60177613    0.1017275  -0.33346102   0.56915805    1.1206512    0.1012889   0.10209955   0.10179406 
 5311000   0.60319147   0.10532818  -0.32990853   0.57483343    1.1458469   0.10865546   0.10305582   0.10427328 
 5312000   0.60528998   0.10710592  -0.32722311   0.58066647    1.1613175   0.10510565   0.11035294   0.10585917 
 5313000    0.6067433   0.10513243  -0.32934782   0.58072163    1.1506738    0.1070866   0.10443256   0.10387813 
 5314000   0.59857148   0.10133544  -0.32948476   0.56832757    1.1176952   0.10019117    0.1020023   0.10181285 
 5315000   0.59743154    0.1013843  -0.33138891    0.5647136    1.1143461    0.1030383    0.1008932   0.10022139 
 5316000   0.59596222   0.10178933  -0.32883049   0.56506814    1.1168965   0.10208547  0.099451991   0.10383054 
 5317000   0.59608719   0.10262758  -0.32981257   0.56427351    1.1206462   0.10194503   0.10285193   0.10308577 
 5318000    0.6018196   0.10268603  -0.32888191   0.57380237    1.1304919   0.10392819    0.1027345   0.10139541 
 5319000   0.60151216   0.10443831  -0.32827128   0.57395185     1.140141   0.10555977   0.10330501   0.10445014 
 5320000   0.60121714   0.10351143  -0.33065112    0.5711295    1.1322938   0.10359261    0.1056689    0.1012728 
 5321000   0.60271662   0.10173349  -0.33098664   0.57304308    1.1245687   0.10325561  0.099566571   0.10237829 
 5322000   0.59358279  0.098289298  -0.33179165   0.55853802    1.0913917  0.098895599  0.096691203  0.099281092 
 5323000   0.59645704  0.099195527  -0.33337968   0.56126114    1.0990277  0.096810202   0.10212888  0.098647495 
 5324000   0.60209389   0.10291473  -0.33137608    0.5717196     1.129649   0.10294473   0.10375994   0.10203953 
 5325000    0.6038054    0.1063542  -0.32955562   0.57610719    1.1526829   0.10543815   0.10576144     0.107863 
 5326000   0.60314335   0.10291865  -0.33099961   0.57367018    1.1316208   0.10358642   0.10112005   0.10404947 
 5327000   0.59967936    0.1016359   -0.3306977   0.56877636    1.1197729    0.1028131   0.10066036   0.10143425 
 5328000   0.60525297   0.10390635   -0.3297426   0.57809147    1.1413968   0.10369656   0.10260087   0.10542164 
 5329000   0.60735615    0.1027242   -0.3325663   0.57842238    1.1353189   0.10109466   0.10494832   0.10212962 
 5330000   0.60260007    0.1051395  -0.32829213   0.57556278    1.1455533   0.10681408   0.10505326   0.10355117 
 5331000   0.60251868   0.10601918  -0.32856258   0.57517025    1.1499297   0.10687456   0.10668225   0.10450071 
 5332000   0.59325491   0.10053966  -0.33026399   0.55957389    1.1046274  0.098908143   0.10319097  0.099519856 
 5333000   0.59606606   0.10195325  -0.33002971   0.56402466    1.1167416   0.10472112  0.099669005   0.10146962 
 5334000   0.59724685   0.10332292  -0.33145916   0.56436632    1.1245086   0.10396837   0.10083938     0.105161 
 5335000   0.60201433   0.10359506  -0.32848865   0.57448769    1.1361053   0.10255218   0.10200956   0.10622343 
 5336000   0.60226034   0.10267022  -0.33163587   0.57170946    1.1283133   0.10084906   0.10413975   0.10302185 
 5337000   0.60541033   0.10366591  -0.33267206   0.57539803    1.1373998   0.10557478    0.1022074   0.10321556 
 5338000    0.6006096   0.10571983  -0.32928132   0.57158803    1.1447247   0.10578231   0.10402366   0.10735352 
 5339000   0.60347876   0.10239437  -0.32740014   0.57777274    1.1328811   0.10120901   0.10378184   0.10219226 
 5340000   0.59795566   0.10612617  -0.32969175    0.5671969    1.1425364   0.10511359   0.10737832   0.10588659 
 5341000   0.59637111   0.10121077  -0.33062708   0.56388486    1.1125767   0.10213849   0.10004498   0.10144886 
 5342000   0.59933822   0.10188611  -0.33116604   0.56779634    1.1201493   0.10375606   0.10161711   0.10028516 
 5343000   0.60111124   0.10246545  -0.33207107   0.56955071    1.1250445    0.1041382   0.10149556    0.1017626 
 5344000   0.60273797   0.10291938  -0.32978357   0.57427819    1.1322328    0.1025952    0.1034637   0.10269923 
 5345000   0.60324394   0.10249729  -0.33230586    0.5725148    1.1281812   0.10042846   0.10509294   0.10197048 
 5346000   0.60329638   0.10565082  -0.33082577   0.57407355    1.1468361   0.10306598   0.10630667   0.10757982 
 5347000   0.60054298   0.10273981  -0.32942254   0.57134689     1.128328   0.10119189   0.10504907   0.10197848 
 5348000   0.60574771   0.10201861  -0.33459475   0.57398137    1.1270527   0.10039534   0.10507902   0.10058147 
 5349000   0.59482154   0.10064565  -0.33309897   0.55908873    1.1047168    0.1022827   0.10137516  0.098279079 
 5350000    0.5978588   0.10404035  -0.33076615   0.56597721    1.1300089   0.10320197   0.10384815   0.10507095 
 5351000   0.59905698    0.1031012   -0.3297602   0.56878035    1.1277206   0.10335338   0.10059051   0.10535969 
 5352000   0.59591341   0.10338792  -0.32960907   0.56421635    1.1247111   0.10237684   0.10428039   0.10350654 
 5353000   0.59439999    0.1034921   -0.3306483    0.5609071    1.1219666   0.10500191   0.10152128   0.10395309 
 5354000   0.60835977   0.10255586  -0.33321404   0.57927999    1.1352639    0.1023524   0.10199246   0.10332273 
 5355000   0.60042176   0.10271174  -0.32822862   0.57235898    1.1291879   0.10196697   0.10119574   0.10497249 
 5356000    0.6013681   0.10409797  -0.33074917   0.57125787     1.135602   0.10560922   0.10071939   0.10596532 
 5357000   0.60380708   0.10374422  -0.33334647   0.57231886    1.1347452   0.10227474   0.10359492   0.10536299 
 5358000   0.60142746   0.10516944  -0.33293638   0.56915969    1.1393125   0.10267255    0.1058156   0.10702017 
 5359000   0.59870692   0.10071343  -0.33220092   0.56581455    1.1118101   0.10171705  0.099386889   0.10103634 
 5360000   0.59974859    0.1028937  -0.33163781   0.56794009    1.1257555   0.10650395   0.10159364   0.10058352 
 5361000   0.59838692   0.10123861  -0.33059206   0.56694343    1.1157862   0.10375295   0.10070262  0.099260276 
 5362000   0.59531847   0.10209664  -0.33000234   0.56293071     1.116425    0.1026544   0.10269115   0.10094437 
 5363000   0.59624507   0.10108608   -0.3297797   0.56454319     1.112559   0.10240594   0.10512827  0.095724046 
 5364000   0.59879566   0.10383427  -0.32910777    0.5690408    1.1319553   0.10512848    0.1046866   0.10168774 
 5365000   0.59775927   0.10305378  -0.32981628   0.56677779     1.125461   0.10143097   0.10615453   0.10157585 
 5366000   0.60068858     0.104816  -0.32951363   0.57147418    1.1397109   0.10614257   0.10374291   0.10456252 
 5367000   0.60623272   0.10180751  -0.33285546   0.57644816     1.128375   0.10129519    0.1007828   0.10334455 
 5368000   0.60262229   0.10493284  -0.33047176   0.57341648    1.1422866   0.10708377   0.10493541   0.10277934 
 5369000   0.59722616   0.10125703  -0.33206259   0.56373186    1.1126744  0.098522638   0.10131585   0.10393261 
 5370000   0.59755091   0.10523682  -0.33014497   0.56613658    1.1366547   0.10396394   0.10375867   0.10798785 
 5371000   0.59911624   0.10477006  -0.32844132    0.5701881    1.1381758   0.10297367   0.10606509   0.10527142 
 5372000   0.59599814   0.10140294  -0.33163538   0.56231713    1.1120507    0.1006938  0.098775696   0.10473931 
 5373000   0.59740857   0.10016806  -0.33059168   0.56547638    1.1085153   0.10058947    0.1001583  0.099756411 
 5374000   0.59593333   0.10228851  -0.33022539   0.56362991    1.1181644   0.10253657   0.10336923   0.10095972 
 5375000   0.60033987   0.10227933  -0.33038653   0.57007825     1.124563   0.10177678   0.10094027   0.10412095 
 5376000   0.60103162   0.10260089  -0.33199415    0.5695082    1.1257362   0.10439971   0.10174722   0.10165574 
 5377000   0.60206822   0.10205563  -0.33052962   0.57252756    1.1257995  0.099682162   0.10360247   0.10288225 
 5378000   0.61033724   0.10389993  -0.32832967   0.58713042    1.1504009   0.10306482   0.10481488   0.10382008 
 5379000    0.6049125   0.10033279  -0.33214972   0.57517366    1.1191057   0.10025819  0.097930606   0.10280959 
 5380000   0.60211454   0.10459024  -0.33092146   0.57220519     1.139218   0.10235482   0.10261412   0.10880178 
 5381000   0.60079511   0.10252135  -0.33033506   0.57081255    1.1266093   0.10133435   0.10252831   0.10370139 
 5382000   0.60071307   0.10073684  -0.33076543   0.57025912    1.1163816    0.1007108   0.10250153  0.098998192 
 5383000   0.59756831   0.10219305  -0.33237926   0.56392839    1.1179454   0.10256169   0.10249992   0.10151755 
 5384000   0.59768079   0.10159586  -0.33167324   0.56480312    1.1155826    0.1022115   0.10098075   0.10159534 
 5385000   0.59609456   0.10496098  -0.32868758   0.56540955    1.1344322   0.10614873   0.10441776   0.10431644 
 5386000   0.59712227   0.10257837  -0.33105297   0.56458566    1.1206916  0.099238173   0.10314323   0.10535371 
 5387000   0.59669428   0.10357278  -0.32761357    0.5673831      1.12888   0.10080366   0.10542003   0.10449464 
 5388000   0.60362032    0.1036119  -0.33030681    0.5750784    1.1367873   0.10548983   0.10181846   0.10352739 
 5389000    0.6001213   0.10461443  -0.32927945    0.5708575    1.1380015   0.10451903   0.10354266   0.10578161 
 5390000   0.60181235   0.10403623  -0.32951638   0.57315701    1.1371664   0.10349281   0.10348509   0.10513078 
 5391000   0.59915629   0.10389364  -0.32899219   0.56969731    1.1329337   0.10532137   0.10260099   0.10375856 
 5392000   0.60399342    0.1033162  -0.32988394   0.57606089    1.1361668   0.10391711   0.10498592   0.10104556 
 5393000    0.6024557   0.10311624  -0.33032103   0.57331734    1.1323392   0.10454831    0.1011955   0.10360491 
 5394000   0.60174356   0.10094024  -0.33205931   0.57051089     1.117736   0.10012775   0.10201374   0.10067922 
 5395000   0.60234924   0.10510119  -0.33145105   0.57202763    1.1418104   0.10287053   0.10827871   0.10415432 
 5396000   0.60760618   0.10646046   -0.3294223    0.5819414    1.1590932   0.10616371   0.10689802   0.10631964 
 5397000    0.6015501   0.10461506  -0.32931205   0.57296798    1.1401154   0.10578604   0.10500313   0.10305601 
 5398000   0.59673507   0.10547924  -0.33009682   0.56496104    1.1367934   0.10698552   0.10447571   0.10497648 
 5399000   0.59650034   0.10414894  -0.33041488   0.56429089    1.1289113   0.10521489   0.10384861   0.10338332 
 5400000   0.59920746  0.099807566  -0.33330375    0.5654625    1.1065471   0.10074382  0.097813085   0.10086579 
 5401000   0.59781575   0.10130762  -0.33064484   0.56603395    1.1152508   0.10073718   0.10183637   0.10134932 
 5402000   0.59664039   0.10085675  -0.33122319   0.56369264    1.1104652   0.10090254   0.10336035  0.098307369 
 5403000   0.59257407   0.10109336  -0.33115535   0.55766131    1.1057166   0.10284183  0.098486197   0.10195207 
 5404000   0.59830639   0.10438134  -0.32997045   0.56744426    1.1333246   0.10385449   0.10362841   0.10566111 
 5405000   0.60156555    0.1035657  -0.33116439   0.57113882    1.1325973   0.10426492   0.10243031   0.10400186 
 5406000   0.60165944   0.10324721  -0.33133741   0.57110662    1.1308385   0.10200275   0.10467945   0.10305943 
 5407000   0.60104947   0.10347312   -0.3294287   0.57210043     1.133057   0.10435962   0.10628113  0.099778612 
 5408000   0.60224492    0.1029304  -0.32948726   0.57383495    1.1318493   0.10198156   0.10543795   0.10137169 
 5409000   0.60416659   0.10475489  -0.32906446   0.57714011    1.1450455   0.10491447   0.10637168   0.10297852 
 5410000    0.5991733   0.10004363   -0.3338709   0.56484412    1.1072085   0.10259578  0.099383312  0.098151815 
 5411000   0.59905851   0.10146509  -0.33069812   0.56784472    1.1179152   0.10305314    0.1008237   0.10051842 
 5412000    0.6005888   0.10558756  -0.32853963   0.57229853    1.1447181   0.10350073   0.10791199   0.10534996 
 5413000   0.60192397     0.103771  -0.32946571    0.5733751    1.1359466   0.10249834   0.10365576   0.10515889 
 5414000   0.60606219   0.10244716  -0.33247093    0.5765769    1.1319715   0.10493339   0.10184943   0.10055866 
 5415000   0.60220237   0.10092658  -0.33190158   0.57135681    1.1185079   0.10231594   0.10042727   0.10003652 
 5416000   0.59935471   0.10356508  -0.33142799   0.56755913    1.1290143   0.10251393   0.10727981   0.10090151 
 5417000   0.59769545   0.10095085  -0.33223075   0.56426759    1.1115503   0.10199592   0.09912121   0.10173544 
 5418000   0.59457833  0.098704269   -0.3319382   0.55988471     1.094988  0.098992144  0.097589658  0.099531005 
 5419000   0.60015291   0.10105027  -0.33251324   0.56767111    1.1154928   0.10212068   0.10341502  0.097615108 
 5420000   0.59479657   0.10163696  -0.32893116   0.56321909    1.1142214   0.10145847   0.10179676   0.10165565 
 5421000    0.5967618  0.098130762  -0.33249194   0.56260601    1.0946002  0.097981646  0.098739361  0.097671278 
 5422000   0.59532154   0.10363788  -0.33018291   0.56275476    1.1246046   0.10560308   0.10233464   0.10297592 
 5423000   0.59962751   0.10233478  -0.33168325   0.56771305    1.1224984   0.10202454   0.10426354   0.10071625 
 5424000   0.59583431   0.10104475  -0.33295485   0.56075193    1.1085437   0.10156815   0.10187128  0.099694826 
 5425000   0.59693192   0.10083105  -0.33200065   0.56335246    1.1099856   0.10043137    0.1020381   0.10002366 
 5426000   0.59291045   0.10119474  -0.32848933   0.56083188    1.1094368   0.10226482   0.09962369   0.10169572 
 5427000   0.59282121   0.10092319  -0.32854173   0.56064563    1.1077783   0.10352517   0.10135536  0.097889031 
 5428000   0.60190751   0.10294611  -0.32946904   0.57334708    1.1314466   0.10336668   0.10432379   0.10114784 
 5429000   0.59984755   0.10476333  -0.32930769   0.57041865    1.1383698   0.10714835   0.10066541   0.10647622 
 5430000   0.60330403   0.10227724  -0.33094311   0.57396769    1.1284411   0.10159337  0.099171813   0.10606653 
 5431000   0.60254962    0.1051696  -0.32740305   0.57637618    1.1465299   0.10171537   0.10829715   0.10549627 
 5432000   0.60471835   0.10478074  -0.33149617   0.57553601    1.1435816    0.1031038   0.10436779   0.10687063 
 5433000   0.60139626   0.10363624  -0.32956003   0.57248925    1.1343302   0.10393066   0.10234906     0.104629 
 5434000   0.60088795   0.10319998   -0.3322493   0.56903757    1.1285134   0.10077479   0.10427093   0.10455422 
 5435000   0.59829346   0.10432373  -0.33148961   0.56590571    1.1314737   0.10516511   0.10196078   0.10584529 
 5436000   0.59805265   0.10129454  -0.33139951    0.5656346    1.1147805  0.099845978  0.097991381   0.10604626 
 5437000   0.59366788   0.10002982  -0.33133536   0.55912193    1.1014115   0.10099789   0.10059014  0.098501435 
 5438000   0.59082193   0.10085257  -0.33040284   0.55578575    1.1025356   0.10178431  0.099308254   0.10146513 
 5439000   0.59842455   0.10168719  -0.33364598   0.56394596    1.1152205   0.10287557  0.099062965   0.10312304 
 5440000   0.60160982   0.10176536  -0.33329856   0.56907105    1.1207694  0.099326277   0.10500287   0.10096694 
 5441000   0.60509783   0.10140662  -0.33064175   0.57695961    1.1267131   0.10246183  0.099531218   0.10222682 
 5442000   0.60305757   0.10148592  -0.33339691   0.57114422    1.1213276   0.10383019   0.10072259  0.099904975 
 5443000   0.59917079   0.09988153  -0.33261437   0.56609687    1.1075825  0.097652182   0.10101519   0.10097721 
 5444000   0.59533342   0.10125795  -0.32994115   0.56301433    1.1119619   0.10280182   0.10139008  0.099581941 
 5445000   0.60481093   0.10668197  -0.32784235   0.57932869    1.1576814   0.10587585   0.10629026    0.1078798 
 5446000   0.60612507   0.10479634  -0.33041581   0.57872634    1.1468565   0.10532626   0.10470692   0.10435582 
 5447000   0.60375258   0.10218825  -0.33416356   0.57142003     1.125411   0.10289491   0.10053405   0.10313581 
 5448000   0.60131308   0.10276771  -0.33190608   0.57001844    1.1271508   0.10288942    0.1002453    0.1051684 
 5449000    0.6034442   0.10117414  -0.33185596   0.57326508    1.1217583  0.096840312   0.10400272   0.10267937 
 5450000   0.60096732   0.10440528  -0.33007454   0.57133136    1.1373415   0.10421278   0.10292977   0.10607329 
 5451000   0.59994738  0.099709467  -0.33245566   0.56742041    1.1079732  0.096505695   0.10085039   0.10177231 
 5452000     0.599374   0.10046462   -0.3313038   0.56771225    1.1123589   0.10028243   0.10325621  0.097855207 
 5453000   0.59814656   0.10523446  -0.32597006   0.57120492    1.1417103   0.10308842   0.10374228    0.1088727 
 5454000   0.60080682   0.10046174   -0.3334732   0.56769197    1.1123231   0.10173917   0.10103836  0.098607693 
 5455000   0.59487734  0.099751091  -0.32748392   0.56478747    1.1055659   0.09789616   0.09813673   0.10322038 
 5456000   0.60000016   0.10252106  -0.33213078   0.56782446    1.1236197   0.10127305   0.10248867   0.10380145 
 5457000   0.60092116   0.10239911  -0.33078232   0.57055434    1.1256884   0.10251247   0.10267973   0.10200514 
 5458000    0.6015564   0.10148415  -0.33088368    0.5714058    1.1215796   0.10089546   0.10213066   0.10142633 
 5459000   0.60400438    0.1033371  -0.33092759   0.57503369    1.1352529     0.101351   0.10529567   0.10336462 
 5460000   0.60539937   0.10594155   -0.3298325   0.57822116    1.1525598   0.10429379   0.10791421   0.10561665 
 5461000   0.60164623   0.10254801  -0.32915737   0.57326686    1.1292082    0.1046765   0.10116684   0.10180069 
 5462000   0.59897639   0.10307659  -0.33087573   0.56754393    1.1263508   0.10235853     0.103713   0.10315823 
 5463000   0.59667283   0.10369583  -0.33077569   0.56418881    1.1263528   0.10693283   0.10506914  0.099085521 
 5464000   0.59593513   0.10562363  -0.33073766   0.56312033    1.1357354   0.10899067   0.10109208   0.10678812 
 5465000   0.59593971   0.10086396  -0.33239169   0.56147319    1.1082848  0.097483096   0.10381301   0.10129576 
 5466000   0.59550289   0.10078905  -0.33100649   0.56220319    1.1086087   0.10092725  0.099331235   0.10210867 
 5467000   0.59489615   0.10197338  -0.32902093   0.56327869    1.1161048   0.10444947   0.10027561   0.10119505 
 5468000   0.59879074   0.10283009  -0.33024944   0.56789175    1.1253623   0.10308343   0.10174584   0.10366101 
 5469000   0.60197978   0.10125609  -0.33193357   0.57099095    1.1199284  0.098696376    0.1020279   0.10304399 
 5470000   0.59729425   0.10281785  -0.32919802   0.56669856    1.1241028   0.10117632   0.10305027   0.10422697 
 5471000   0.59780436   0.10115313  -0.33128545   0.56537625    1.1137555   0.10069534   0.10080431   0.10195972 
 5472000   0.59332524   0.10412423  -0.33054542   0.55939795    1.1238844   0.10678885   0.10134392   0.10423992 
 5473000   0.59173317     0.101559  -0.33073262   0.55682276    1.1074024   0.10098836   0.10119306   0.10249559 
 5474000   0.59577122   0.10140928  -0.33148312   0.56212903     1.111897   0.10118032   0.10010561   0.10294192 
 5475000   0.60281281   0.10454218  -0.33295463   0.57121938    1.1379717   0.10499592   0.10505204   0.10357858 
 5476000   0.60253349    0.1027821  -0.32967597   0.57407907    1.1312895    0.1034507   0.10122593   0.10366966 
 5477000   0.60284022   0.10291303    -0.330048   0.57416711    1.1320873   0.10257616   0.10141275   0.10475016 
 5478000   0.59374619   0.10106389  -0.33064852   0.55992623    1.1078218   0.10038029   0.10054896   0.10226243 
 5479000   0.59441381   0.10139384  -0.33262393   0.55895221    1.1086364   0.10073397   0.10264322   0.10080431 
 5480000   0.59666428     0.101378  -0.33033407   0.56461761     1.114216  0.099995475   0.10188362    0.1022549 
 5481000   0.59932555   0.10167274  -0.32936677    0.5695766    1.1207728   0.10159455   0.10159729   0.10182637 
 5482000    0.6029024   0.10057411  -0.33230873   0.57199966    1.1172399   0.10256144  0.097713167   0.10144774 
 5483000   0.60810234   0.10587523  -0.33083281   0.58127509    1.1552542   0.10497421   0.10284821   0.10980329 
 5484000    0.6015663   0.10053527  -0.33107255   0.57123179    1.1162615   0.10010671  0.099222273   0.10227684 
 5485000   0.59903484    0.1032202  -0.33024617   0.56826115    1.1278466   0.10352304   0.10426747   0.10187009 
 5486000   0.60116231   0.10307105  -0.32882948   0.57286889    1.1316457   0.10358111   0.10487527   0.10075676 
 5487000   0.59721173   0.10386638  -0.32972779   0.56604502    1.1291336   0.10355086   0.10488083   0.10316746 
 5488000   0.59628864   0.10111874  -0.33340249   0.56098575    1.1091786  0.099061231   0.10426745   0.10002754 
 5489000   0.59350745   0.10111507   -0.3315423   0.55867437    1.1068473   0.10168115   0.10265648  0.099007579 
 5490000   0.60366776  0.099439696  -0.33354601   0.57191036    1.1110006  0.099175649   0.10071514  0.098428296 
 5491000   0.59995672   0.10308059  -0.32916543   0.57072465    1.1295533    0.1018264   0.10387533   0.10354005 
 5492000   0.60092469   0.10369598   -0.3292482   0.57209376    1.1342585     0.102252   0.10369734   0.10513859 
 5493000   0.60130531   0.10195253  -0.33154947   0.57036341    1.1230765   0.10203663   0.10111989   0.10270108 
 5494000   0.59696341   0.10232975   -0.3305665   0.56483384    1.1195919   0.10330039   0.10246257   0.10122628 
 5495000   0.59782169   0.10057452  -0.32989744   0.56679026    1.1120328   0.10136667     0.101288  0.099068895 
 5496000    0.5951636   0.10295824     -0.32904   0.56366077     1.121826   0.10168623   0.10279708   0.10439139 
 5497000   0.59777778   0.10371562  -0.33028604    0.5663358    1.1286071   0.10492664   0.10441012   0.10181009 
 5498000   0.60232492   0.10388396  -0.33082738   0.57261483    1.1357987    0.1021678   0.10384662   0.10563747 
 5499000     0.608601   0.10470349  -0.32805891   0.58479694    1.1524237    0.1049384   0.10404773   0.10512436 
 5500000   0.60391333  0.099893771  -0.33214951   0.57367519    1.1152272  0.099051862  0.099395151    0.1012343 
 5501000    0.6051396   0.10249951   -0.3310161   0.57664791    1.1323263  0.098893449   0.10234812   0.10625697 
 5502000   0.60599229    0.1075609   -0.3292411   0.57970189    1.1628195   0.10776121   0.10963802   0.10528348 
 5503000   0.60175934   0.10473427  -0.32968297   0.57291091    1.1407046   0.10535117   0.10355796   0.10529369 
 5504000   0.60148448   0.10146929  -0.32960921   0.57257239    1.1226657   0.10090823    0.1008208   0.10267884 
 5505000   0.59430657    0.1019375  -0.32954117   0.56187411    1.1145057   0.10071394   0.10484366   0.10025488 
 5506000   0.59538731   0.10414997  -0.33002873   0.56300758    1.1276335   0.10348583     0.100986   0.10797806 
 5507000   0.59709132   0.10052804   -0.3321411    0.5634511    1.1084416    0.1001846   0.10125728   0.10014224 
 5508000   0.60083984   0.10220003  -0.33134975   0.56986494    1.1239198   0.10391778  0.099964203   0.10271812 
 5509000   0.60040432   0.10599309  -0.33010671   0.57045475    1.1450728   0.10770251   0.10394441   0.10633235 
 5510000   0.59380617   0.10330493  -0.33200251   0.55866221     1.118707   0.10529839   0.10305508   0.10156133 
 5511000    0.5965982   0.10109263  -0.33189977   0.56295278    1.1110041   0.10327763   0.10219244   0.09780782 
 5512000   0.59973538   0.10132561  -0.32872038   0.57083771    1.1201521   0.10303687   0.10222353  0.098716444 
 5513000   0.60044803   0.10183938  -0.33007709   0.57054993    1.1226496   0.10008862   0.10268707   0.10274246 
 5514000   0.60676394    0.1030164  -0.33383001    0.5762704     1.134751   0.10044006   0.10134699   0.10726216 
 5515000   0.60095189   0.10382512  -0.32673969   0.57464307     1.137508   0.10587493   0.10305307   0.10254736 
 5516000   0.60358145   0.10239971  -0.33171932   0.57360758    1.1287449   0.10412567   0.10196979   0.10110368 
 5517000   0.60210379   0.10534568  -0.33013394   0.57297658    1.1440849   0.10584227   0.10407472   0.10612005 
 5518000   0.60334081   0.10201803  -0.33035282   0.57461315    1.1276813  0.098643983    0.1019025   0.10550761 
 5519000   0.59244866  0.099354575  -0.33085985    0.5577687    1.0963975  0.099274868  0.098189085   0.10059977 
 5520000   0.59439207   0.10330993  -0.32904391   0.56249961    1.1225715   0.10397551   0.10133911   0.10461518 
 5521000    0.5970894    0.1013556   -0.3324481   0.56314121    1.1126182   0.10291626  0.099806254   0.10134429 
 5522000   0.59938298   0.10500541  -0.33073548   0.56829403    1.1375576   0.10426018   0.10513334   0.10562272 
 5523000   0.60359653   0.10395284  -0.32977345   0.57557607    1.1391334   0.10237455   0.10383856   0.10564542 
 5524000   0.60373097   0.10397438  -0.32742949   0.57812168    1.1417958   0.10320743     0.107014   0.10170171 
 5525000   0.59660172   0.10273295  -0.33292745   0.56193038    1.1188743   0.10251668   0.10208334   0.10359883 
 5526000   0.59376149   0.10338751  -0.32864729   0.56195042    1.1224429   0.10401522   0.10120975   0.10493755 
 5527000   0.59944473   0.10093024  -0.33196042   0.56716172    1.1143326   0.10083368    0.1016084   0.10034863 
 5528000   0.60083714   0.10288362  -0.33061641   0.57059424     1.128355   0.10519165  0.099130897    0.1043283 
 5529000   0.59594799   0.10281391  -0.32702569    0.5668516    1.1242345   0.10084033   0.10446752   0.10313389 
 5530000   0.59944884   0.10246457  -0.32975322   0.56937508     1.124864   0.10510222   0.10248213  0.099809353 
 5531000   0.60300084   0.10240831  -0.33019563    0.5742604    1.1294444    0.1027229   0.10094375   0.10355827 
 5532000   0.60284606   0.10447862  -0.33178039   0.57244349    1.1388512   0.10425108   0.10360592   0.10557887 
 5533000   0.60157029   0.10265699  -0.33278918   0.56952114    1.1260533   0.10679689  0.099888031   0.10128604 
 5534000   0.59834011   0.10274723  -0.33124072   0.56622457    1.1232459   0.10375611   0.10010956   0.10437601 
 5535000   0.59555381  0.098888341  -0.32961681   0.56366924    1.0997705  0.098881374  0.096595081   0.10118857 
 5536000   0.59805208   0.10314615  -0.32931391   0.56771935    1.1269033   0.10679035   0.09977784   0.10287025 
 5537000   0.60355329    0.1041726  -0.33168594   0.57359873    1.1383474   0.10434908   0.10177504   0.10639368 
 5538000   0.60549993    0.1049019  -0.33208744   0.57611705    1.1448195   0.10244231   0.10481437   0.10744903 
 5539000   0.60055037   0.10364153  -0.33161988   0.56916063    1.1310302   0.10527201   0.10248841   0.10316419 
 5540000   0.59887478    0.1002357  -0.33209605   0.56617121    1.1095769  0.098918348   0.10483041   0.09695835 
 5541000   0.59965764  0.099462214  -0.33130553   0.56813596    1.1073483  0.099800338  0.098468439   0.10011786 
 5542000   0.59782471   0.10229089   -0.3326408   0.56405143    1.1185989   0.10204665   0.10140963    0.1034164 
 5543000   0.60019405   0.10208036  -0.33181836    0.5684277    1.1218338   0.10274964   0.10392844  0.099563009 
 5544000   0.59914686   0.10001042  -0.33330939   0.56536598    1.1075503   0.10296095  0.099831394  0.097238918 
 5545000   0.59924802   0.10115693  -0.33211186   0.56671522    1.1151151    0.1022474   0.10089876   0.10032465 
 5546000   0.60191496   0.10205081  -0.33382851   0.56899879    1.1222447   0.10125421    0.1034335   0.10146473 
 5547000   0.60370152   0.10385359   -0.3276612    0.5778458     1.140865    0.1038589   0.10390761   0.10379424 
 5548000   0.59848267   0.10344176  -0.32863143   0.56904769    1.1298343   0.10353787    0.1042823    0.1025051 
 5549000   0.59606758   0.10255126  -0.33052605   0.56353061    1.1194896   0.10227915   0.10593671  0.099437913 
 5550000   0.59588194   0.10462811  -0.32919243    0.5645858    1.1318039   0.10573637   0.10300073   0.10514724 
 5551000   0.59753934   0.10256989  -0.32997365   0.56629055    1.1223505   0.10072165   0.10453715   0.10245089 
 5552000   0.59670864   0.10365632  -0.33130406   0.56371414    1.1256639   0.10562288   0.10059667   0.10474941 
 5553000   0.59905245   0.10304809  -0.33194711   0.56658663     1.125239   0.10299641   0.10436968   0.10177817 
 5554000   0.59976834   0.10315819  -0.33181195   0.56779558    1.1270448   0.10448293   0.10301791   0.10197372 
 5555000    0.6087379   0.10585973  -0.33037844   0.58268276    1.1565779   0.10551003   0.10609491   0.10597426 
 5556000   0.60169169   0.10244694  -0.33111252   0.57137989    1.1267733   0.10679219   0.10049163   0.10005701 
 5557000   0.60483502   0.10430178  -0.33100582   0.57620135    1.1416504   0.10475412   0.10499387   0.10315735 
 5558000   0.60749474   0.10444647    -0.329327   0.58186954     1.148103   0.10188284   0.10636318   0.10509339 
 5559000   0.60085912   0.10368545  -0.32755254   0.57369108    1.1357988   0.10173258   0.10514404   0.10417973 
 5560000   0.59902833   0.10163682  -0.33257456   0.56592301    1.1169245   0.10124751   0.10092373   0.10273921 
 5561000   0.59684226   0.10406131  -0.33274407   0.56247456    1.1266199   0.10549656   0.10168032   0.10500704 
 5562000   0.59467922    0.1020263  -0.33101783    0.5609564    1.1140694    0.1030899  0.099826272   0.10316272 
 5563000   0.59474075    0.1041487  -0.32964507   0.56242146    1.1270406    0.1051556   0.10381481    0.1034757 
 5564000   0.60393219   0.10364024   -0.3320815   0.57377149    1.1356341   0.10385406   0.10610925   0.10095741 
 5565000   0.60296406    0.1020644  -0.33083876   0.57356212    1.1268817  0.099514911   0.10256896   0.10410934 
 5566000   0.60107851  0.099936428  -0.33241266   0.56916002    1.1109432  0.099545084  0.097817074   0.10244713 
 5567000   0.59757908   0.10426091  -0.33141489   0.56490891    1.1301363   0.10711828   0.10351903   0.10214541 
 5568000   0.59410579  0.099518944  -0.33102484   0.56008928    1.0996092  0.099566837  0.099303853  0.099686143 
 5569000   0.59866883   0.10230552  -0.32994073   0.56801761    1.1226443    0.1032862  0.098986338   0.10464403 
 5570000   0.59944632   0.10195467  -0.32950048   0.56962405    1.1223487   0.10073773   0.10158829   0.10353801 
 5571000   0.60259806   0.10228428  -0.33306996   0.57078194    1.1252935   0.09849836   0.10388991   0.10446457 
 5572000   0.60138062   0.10137495  -0.33222523    0.5698006    1.1193824    0.1002427   0.10310601   0.10077615 
 5573000   0.60514982    0.1047233  -0.32935804   0.57832131    1.1460555   0.10487791   0.10516241   0.10412958 
 5574000   0.60478054   0.10216589  -0.32957984   0.57754562    1.1314154   0.10424856   0.10114997   0.10109913 
 5575000   0.60499396   0.10294437  -0.32958103   0.57786453    1.1359546   0.10530067   0.10134827   0.10218418 
 5576000   0.60284098   0.10369882  -0.33172774   0.57248852    1.1346687   0.10415023   0.10324637   0.10369986 
 5577000   0.60211774   0.10033747  -0.33173823   0.57139322    1.1153506   0.10086247  0.099448358    0.1007016 
 5578000   0.60236151   0.10103079    -0.331079   0.57241808    1.1201341   0.10194685  0.098462819   0.10268269 
 5579000   0.59796357   0.10149183  -0.32902957   0.56787093    1.1180864   0.10661054  0.099239488   0.09862547 
 5580000   0.59457006   0.10439342  -0.32822591   0.56358459    1.1295304   0.10456506   0.10563021   0.10298497 
 5581000    0.6012733   0.10273045  -0.33064739   0.57121747    1.1281478   0.10543068   0.10207258   0.10068809 
 5582000   0.60323113   0.10395714  -0.33028898   0.57451247    1.1380931   0.10318784   0.10238276   0.10630083 
 5583000   0.59983491   0.10432933  -0.32898968    0.5707177    1.1363161   0.10131221     0.104534   0.10714178 
 5584000   0.59422621   0.10061476  -0.32977745    0.5615173    1.1069779  0.099340312  0.098810614   0.10369335 
 5585000   0.59744122   0.10143225  -0.33274181   0.56337522    1.1132677  0.098723638   0.10337648   0.10219662 
 5586000   0.59766256    0.1008832  -0.33015503   0.56629398    1.1132099   0.10199712   0.10063002   0.10002248 
 5587000   0.60140519   0.10131897  -0.33156903   0.57049365     1.119772   0.10020759   0.10340008   0.10034925 
 5588000   0.60292014   0.10598634  -0.32796328    0.5763717    1.1509532   0.10508117    0.1070825   0.10579537 
 5589000    0.6057611   0.10523919  -0.32949852    0.5790977    1.1496287   0.10483617    0.1050823   0.10579911 
 5590000   0.60044088   0.10438646  -0.33097676   0.56963953    1.1355476   0.10481832   0.10270119   0.10563988 
 5591000   0.59802077   0.10313693  -0.32879386   0.56819245    1.1273265   0.10174559   0.10188083   0.10578438 
 5592000   0.59687925   0.10289967  -0.32905038   0.56622373    1.1240715   0.10515712  0.098673312   0.10486857 
 5593000   0.59548479   0.10077552  -0.33079359   0.56238893    1.1087211   0.10264642   0.10373011   0.09595003 
 5594000    0.6041169   0.10298363  -0.33069812   0.57543192    1.1337348   0.10184977   0.10549279   0.10160832 
 5595000   0.60223317   0.10571455  -0.33149111   0.57181348    1.1449215    0.1048294   0.10483052   0.10748374 
 5596000   0.60325963   0.10031034   -0.3320895   0.57275469     1.116565   0.10063584  0.099165749   0.10112942 
 5597000   0.60338002   0.10372247  -0.32832591   0.57669887    1.1390073   0.10314941   0.10537367   0.10264433 
 5598000   0.59993208   0.10244322  -0.32978575   0.57006737    1.1254406   0.10215131   0.10213519   0.10304315 
 5599000   0.59669942   0.10111944  -0.32889787   0.56610652    1.1143031   0.10265074   0.10000457     0.100703 
 5600000   0.59696499    0.1012632  -0.33354735   0.56185537    1.1108314   0.10219814   0.10173346  0.099857988 
 5601000   0.60346074   0.10484235  -0.32980131   0.57534454    1.1437241   0.10689793   0.10470631   0.10292282 
 5602000   0.60581213   0.10380265  -0.33154103   0.57713174    1.1398748   0.10357121   0.10488061   0.10295612 
 5603000   0.59870668   0.10696208  -0.32774256   0.57027256    1.1501438   0.10582204   0.10606146   0.10900274 
 5604000   0.59719583   0.10327803  -0.33130837   0.56444059    1.1243396   0.10324579   0.10328551    0.1033028 
 5605000   0.59727338  0.099918535  -0.33374745   0.56211783     1.103804  0.098967443   0.10020511   0.10058305 
 5606000   0.60362326   0.10378415  -0.32912376   0.57626586    1.1389086   0.10321225   0.10724232   0.10089787 
 5607000   0.60480286   0.10353446  -0.32755987   0.57959907    1.1408882   0.10422802   0.10385502   0.10252035 
 5608000   0.59782562  0.099625914  -0.33283033   0.56386327    1.1039631  0.097957409  0.099453973   0.10146636 
 5609000   0.59756079   0.10347657  -0.33124572   0.56505064     1.126026   0.10445141   0.10208067   0.10389763 
 5610000   0.59990235   0.10424014  -0.32822933    0.5715792     1.136694   0.10115374   0.10235953   0.10920716 
 5611000   0.60412172   0.10446313  -0.33132231   0.57481496    1.1411387   0.10459096   0.10600814    0.1027903 
 5612000   0.59817079   0.10207073  -0.32902485   0.56818648    1.1215403   0.10493502   0.10004088   0.10123628 
 5613000   0.59955479   0.10245214  -0.33016005   0.56912716    1.1245487   0.10124432   0.10254041   0.10357168 
 5614000   0.59770864   0.10512184  -0.32968688   0.56683125     1.136726   0.10697982    0.1051503    0.1032354 
 5615000   0.59735121   0.10434081  -0.32962718   0.56635483    1.1320154   0.10639874   0.10241865   0.10420503 
 5616000   0.59649507    0.1024582  -0.33111454   0.56358333    1.1190377   0.10320857    0.1049927  0.099173322 
 5617000   0.59845994   0.10080408  -0.33542769   0.56221734    1.1087044  0.098293238   0.10041476   0.10370425 
 5618000   0.59578636  0.099770172  -0.33364773   0.55998714     1.100869  0.099952474  0.096675286   0.10268275 
 5619000   0.59878391   0.10164471  -0.33096701   0.56716395    1.1182083   0.10127689  0.099320766   0.10433649 
 5620000   0.60155742    0.1046303   -0.3295067   0.57278431    1.1400143   0.10472991   0.10390384   0.10525714 
 5621000   0.60413363    0.1029878  -0.33018811   0.57596702    1.1342926     0.102361   0.10271903   0.10388336 
 5622000   0.60063329   0.10385297   -0.3306339   0.57027099    1.1332869   0.10082798   0.10322193     0.107509 
 5623000   0.60061664   0.10385661  -0.32949993   0.57137999    1.1344156   0.10418861   0.10388603   0.10349518 
 5624000   0.59931703   0.10455939  -0.32833793   0.57059267    1.1374382   0.10459383   0.10423421   0.10485012 
 5625000   0.59871282   0.10121587  -0.33065468   0.56736965    1.1160891  0.098977673   0.10506687  0.099603055 
 5626000   0.59732519    0.1001904   -0.3310122   0.56493079    1.1080909  0.099928422   0.10069745   0.09994533 
 5627000   0.60309659   0.10528944  -0.32929081   0.57530884    1.1461122   0.10495369   0.10383968   0.10707496 
 5628000   0.60633899   0.10292698  -0.33149203   0.57797098    1.1359668   0.10255064   0.10266202   0.10356827 
 5629000   0.59920284   0.10220502    -0.327634   0.57112533    1.1252072   0.10499613  0.099449766   0.10216918 
 5630000   0.60196912   0.10283911  -0.33057952   0.57232901    1.1298485   0.10254111   0.10060903    0.1053672 
 5631000   0.60347703    0.1040335   -0.3315372   0.57363308    1.1376277   0.10423318   0.10337232     0.104495 
 5632000    0.6042447  0.099574603   -0.3311759   0.57514583    1.1149675   0.10093843   0.10035826  0.097427118 
 5633000   0.60285487   0.10229953  -0.33023534   0.57400176     1.128596   0.10138349   0.10532311   0.10019198 
 5634000   0.59972451   0.10135432  -0.32953044   0.57001136    1.1194813   0.10360509  0.098272041   0.10218582 
 5635000   0.60473539   0.10319086  -0.32819681   0.57886092    1.1382873   0.10387946   0.10470418   0.10098893 
 5636000   0.60240957   0.10163521  -0.33205109   0.57151808    1.1225108  0.099589299   0.10395755   0.10135877 
 5637000   0.60477933    0.1032869  -0.32986191   0.57726173    1.1372088   0.10206109   0.10576006   0.10203957 
 5638000   0.60364568   0.10500967  -0.32960275   0.57582049    1.1451071   0.10387602   0.10611523   0.10503775 
 5639000   0.60227842   0.10586569  -0.32771201   0.57566044    1.1495879    0.1053354   0.10522331   0.10703837 
 5640000   0.60365879   0.10224573  -0.33196174   0.57348117    1.1277837  0.099622115   0.10544173   0.10167333 
 5641000   0.60232652   0.10218442  -0.33032078   0.57312382     1.127094   0.10030829   0.10653172  0.099713246 
 5642000    0.6030197   0.10277769  -0.33319457   0.57128975    1.1284762   0.10437096    0.1009013    0.1030608 
 5643000   0.59820596   0.10475346  -0.32749683   0.56976723    1.1376649    0.1072323   0.10287631   0.10415176 
 5644000   0.59872142   0.10474689   -0.3291435   0.56889373    1.1367558   0.10453834   0.10642153   0.10328081 
 5645000   0.60018717   0.10361393  -0.32958772   0.57064802     1.132368   0.10325519    0.1034084    0.1041782 
 5646000   0.60134812   0.10436228  -0.33046232   0.57151477    1.1372918   0.10032178   0.10636079   0.10640428 
 5647000   0.60471314   0.10606235  -0.32907137   0.57795299    1.1529465   0.10599164    0.1095887    0.1026067 
 5648000   0.60196151   0.10351499  -0.33144889   0.57144823    1.1326318   0.10510009   0.10366945   0.10177543 
 5649000   0.59953696   0.10386941  -0.32777351   0.57148697     1.134592   0.10184281   0.10272813   0.10703728 
 5650000   0.59806493   0.10178981   -0.3316903   0.56536224    1.1171932   0.10126061   0.10191644   0.10219239 
 5651000   0.59551454  0.099655433  -0.33525059   0.55797656    1.0982364  0.099194887     0.099479   0.10029241 
 5652000   0.59425819   0.10130623  -0.33129562    0.5600471    1.1092564  0.099995875   0.10124647   0.10267636 
 5653000   0.60460683   0.10307186  -0.32928592   0.57757898    1.1363602   0.10397257   0.10291951    0.1023235 
 5654000   0.60454803   0.10215387  -0.33010635   0.57667035    1.1304749   0.10248783   0.10322272   0.10075107 
 5655000   0.60038358   0.10407518     -0.33507   0.56546034    1.1296809   0.10275973    0.1047202   0.10474561 
 5656000   0.59830858    0.1006097   -0.3332325   0.56418549    1.1096187   0.09907842   0.10142336   0.10132731 
 5657000   0.59834837   0.10117856  -0.33068306   0.56679462    1.1153118    0.1033182  0.098560505   0.10165698 
 5658000   0.59521866   0.10404179  -0.32882648   0.56395686    1.1279964   0.10490311   0.10567244   0.10154982 
 5659000   0.59239041   0.10117668   -0.3289653   0.55957588    1.1080829   0.10221546   0.10197284  0.099341747 
 5660000   0.59626338   0.10203971  -0.33124687   0.56310348    1.1162891   0.10239555   0.10039684   0.10332673 
 5661000   0.60250041   0.10138208  -0.33046863   0.57323679    1.1228573   0.10090473   0.10326024  0.099981279 
 5662000   0.60568747   0.10349637  -0.32849867   0.57998711    1.1410698   0.10094035   0.10461252   0.10493624 
 5663000   0.60320966   0.10405079  -0.32814733   0.57662192    1.1407102   0.10345361   0.10349885   0.10519992 
 5664000    0.6021042  0.099828085  -0.33319391   0.56991723    1.1111131  0.097360763  0.099163402   0.10296009 
 5665000   0.59916348   0.10356994  -0.33133389   0.56736639    1.1288479   0.10151487   0.10301988   0.10617506 
 5666000   0.59437536   0.10016568  -0.33080372   0.56071474    1.1037408  0.097316862   0.10346698  0.099713209 
 5667000   0.59902923   0.10116501  -0.33210566   0.56639325     1.114837   0.10223676   0.10040716   0.10085112 
 5668000   0.59856855    0.1032925  -0.33107093   0.56673701    1.1267144   0.10298928   0.10169389   0.10519434 
 5669000    0.5988681   0.10208673  -0.33058357   0.56767365    1.1211143  0.099745833   0.10161823   0.10489613 
 5670000   0.60162631    0.1009678   -0.3317178   0.57067654    1.1180511  0.099400102   0.10000275   0.10350054 
 5671000   0.60338192   0.10514126  -0.33110485   0.57392278    1.1439228   0.10383939   0.10901532   0.10256906 
 5672000   0.59910049   0.10191277  -0.33010821   0.56849759    1.1209951   0.10316383   0.10115014   0.10142434 
 5673000   0.59851434    0.1020089  -0.32972019   0.56800642    1.1210251  0.098601905   0.10568881   0.10173599 
 5674000   0.59719565   0.10167722  -0.32868847   0.56706021    1.1182808    0.1025085   0.10241388   0.10010929 
 5675000   0.59986442   0.10198873  -0.33183072   0.56792093    1.1208303   0.10096362    0.1024914   0.10251119 
 5676000   0.59466416    0.1005001  -0.33208593   0.55986571    1.1047047  0.099490244   0.10289188  0.099118165 
 5677000   0.59846417   0.10194857  -0.33323824   0.56441313    1.1171047   0.10053545  0.099133475   0.10617679 
 5678000   0.60111456   0.10203908  -0.33181863   0.56980812    1.1229904   0.10279182   0.10159833   0.10172709 
 5679000   0.60271606   0.10443371  -0.33106627   0.57296261    1.1391268   0.10514145   0.10644486   0.10171483 
 5680000   0.60136851   0.10455617  -0.32831391   0.57369375    1.1405219   0.10279425   0.10784395    0.1030303 
 5681000   0.60077225   0.10469654  -0.32987314   0.57124018    1.1388293    0.1020754   0.10321621   0.10879801 
 5682000   0.59678849   0.10215418  -0.33077567   0.56436231    1.1181686   0.10136819   0.10476445   0.10032989 
 5683000   0.59872653   0.10180165  -0.33010026   0.56794463    1.1198397   0.10146376   0.10226409   0.10167709 
 5684000   0.59740463   0.10188685  -0.33105015   0.56501199     1.117369   0.10267209   0.10092001   0.10206844 
 5685000   0.59952827   0.10322782  -0.33107166   0.56817577    1.1278025   0.10082628   0.10641434   0.10244285 
 5686000   0.60033963   0.10314127  -0.32961951   0.57084491    1.1300024   0.10452635  0.099623172   0.10527428 
 5687000   0.60054936    0.1014082  -0.33394514   0.56683386     1.116596  0.099960619   0.10294131   0.10132267 
 5688000    0.6048368   0.10044702  -0.33463241   0.57257742    1.1171287   0.10173197  0.098792024   0.10081705 
 5689000   0.60659933   0.10169612  -0.33214804   0.57770545    1.1290284   0.10230947   0.10262937   0.10014952 
 5690000   0.59839773   0.10182027  -0.33342843   0.56412328    1.1161193   0.10005212   0.10327177   0.10213692 
 5691000   0.59631698   0.10162501  -0.33181048   0.56262027    1.1135578   0.10117253   0.10001812    0.1036844 
 5692000   0.59803187   0.10140098  -0.33081719   0.56618576    1.1159087   0.10248119  0.099960633   0.10176112 
 5693000   0.60029291   0.10600327  -0.33116913   0.56922521    1.1438985   0.10592343   0.10406787   0.10801852 
 5694000    0.6031302   0.10469174  -0.33023139   0.57441868    1.1419818    0.1023309   0.10659226   0.10515206 
[...]
 5841000   0.59681141   0.10328347  -0.32946651   0.56570584    1.1256343   0.10385047   0.10081842   0.10518152 
 5842000   0.59987776    0.1027318  -0.33252172   0.56724992    1.1241876   0.10223002   0.10311732   0.10284807 
 5843000   0.60325241   0.10303296  -0.33280939   0.57202399    1.1305943   0.10698766   0.10228805  0.099823166 
 5844000    0.6012332   0.10594281  -0.32780123   0.57400348     1.148349   0.10694628   0.10606402   0.10481812 
 5845000   0.60620079  0.099496243   -0.3360294   0.57322633    1.1126232  0.097548224    0.1021324  0.098808103 
 5846000   0.60376053   0.10241663  -0.32576316   0.57983235    1.1350614    0.1032524  0.099542722   0.10445477 
 5847000   0.59477603    0.1021468  -0.33033725   0.56178218    1.1155485   0.10225174    0.1031372   0.10105147 
 5848000    0.5956194  0.099571997  -0.33244004   0.56094439    1.1007519  0.098397821   0.10063934  0.099678826 
 5849000   0.59587225   0.10021532  -0.33247517   0.56128852    1.1045837  0.099659759   0.10169037  0.099295829 
 5850000   0.59798032   0.10385229  -0.33113364   0.56579199    1.1288042   0.10517709   0.10502128   0.10135851 
 5851000   0.60171169   0.10267234  -0.33222914   0.57029327    1.1269086   0.10162123   0.10278217   0.10361364 
 5852000   0.59826184   0.10553284  -0.32573763   0.57161027    1.1437332   0.10774403   0.10446841   0.10438607 
 5853000   0.60758033   0.10525223  -0.33084286   0.58048206    1.1510837   0.10344417   0.10580277   0.10650974 
 5854000   0.60480333   0.10409179   -0.3283591   0.57880053    1.1431111   0.10322275   0.10481291   0.10423969 
 5855000   0.60052596    0.1023616  -0.33068595   0.57005796    1.1249887    0.1037731   0.10265483   0.10065686 
 5856000   0.59968858   0.10166204  -0.33322125   0.56626665    1.1174049  0.098981619   0.10121193   0.10479256 
 5857000   0.59430459   0.10161583  -0.32915726   0.56225505    1.1131428   0.10230404   0.10408627  0.098457189 
 5858000    0.5955227  0.099061555  -0.33185518    0.5613842    1.0984245   0.09796751   0.10084768  0.098369479 
 5859000   0.59188914   0.10242054  -0.32905024   0.55873908    1.1139893   0.10178774   0.10332709   0.10214678 
 5860000   0.59644399   0.10099846  -0.32906048   0.56556078    1.1131016    0.1026456  0.097963717   0.10238607 
 5861000    0.6012102   0.10435743  -0.32934583   0.57242438    1.1381751   0.10471427   0.10290033    0.1054577 
 5862000   0.60410706    0.1025426  -0.33143336   0.57468192    1.1305939    0.1029885   0.10238447   0.10225482 
 5863000   0.60832714   0.10680751  -0.32819364   0.58425145    1.1632847   0.10459246   0.10899756   0.10683251 
 5864000   0.60162289   0.10235316  -0.32923258   0.57315663    1.1280416   0.10464528   0.10036985   0.10204435 
 5865000   0.60333221   0.10125904  -0.33216291   0.57279015    1.1217436  0.098800672   0.10293455    0.1020419 
 5866000   0.60132202   0.10337058  -0.32861555   0.57332238    1.1337231     0.104421    0.1018821   0.10380865 
 5867000   0.59899997   0.10228599   -0.3276855   0.57076953    1.1252904    0.1029905   0.10394198  0.099925482 
 5868000   0.59740228   0.10010065  -0.33145712    0.5646015     1.107275  0.097520802   0.10253128   0.10024986 
 5869000   0.60088323   0.10453373   -0.3308222   0.57045759    1.1371641   0.10462401    0.1023692   0.10660799 
 5870000   0.60234816   0.10194213  -0.32990675   0.57357031     1.126227   0.10680999  0.097989737   0.10102665 
 5871000   0.60139885   0.10390358  -0.33045949   0.57159367    1.1348839   0.10307355   0.10426201   0.10437517 
 5872000   0.60470991   0.10187983  -0.33110097   0.57591855    1.1282375   0.09930368   0.10254548   0.10379033 
 5873000   0.60539641   0.10424193  -0.33077284   0.57727638    1.1424009   0.10604227   0.10312923   0.10355429 
 5874000   0.60119866   0.10315997  -0.33054307   0.57120983    1.1304687   0.10327468   0.10511559   0.10108962 
 5875000   0.59997785   0.10011652  -0.33124782   0.56867395    1.1114335  0.099599435  0.097564311   0.10318582 
 5876000   0.59415826   0.10299233  -0.32913761   0.56205522    1.1204053   0.10102496   0.10379618   0.10415586 
 5877000   0.60426802   0.10669781  -0.32987189   0.57648481    1.1549234   0.10469419   0.10775503   0.10764422 
 5878000    0.6027054   0.10445702  -0.32752833   0.57648457    1.1427752   0.10396061   0.10735796   0.10205249 
 5879000   0.59991757   0.10246463  -0.32847441   0.57135694    1.1268462   0.10293999   0.10576022  0.098693667 
 5880000   0.60255578    0.1012925  -0.32928884   0.57449965    1.1236345  0.097720636   0.10589664   0.10026024 
 5881000   0.59873291   0.10198351  -0.32821145     0.569843     1.122724   0.10373886   0.10057641   0.10163526 
 5882000   0.59783987   0.10209749  -0.33144224   0.56527273    1.1187716   0.10128375    0.1028306   0.10217811 
 5883000    0.6003367   0.10226732    -0.331012   0.56944803    1.1238676   0.10032478   0.10405429   0.10242289 
 5884000   0.59292994   0.10155426  -0.33095853   0.55839192    1.1089458   0.10169186   0.10097555   0.10199535 
 5885000   0.59431999  0.098454233  -0.33341389   0.55802152    1.0917693  0.096392533  0.098305688   0.10066448 
 5886000   0.59839231   0.10183984  -0.33145298    0.5660906    1.1181927   0.10223013   0.10101522   0.10227417 
 5887000   0.59431927   0.10278638  -0.33226431   0.55917002    1.1164036   0.10195049   0.10350051   0.10290815 
 5888000   0.59899694   0.10355476  -0.33289448     0.565556    1.1269552   0.10396637   0.10554234   0.10115558 
 5889000   0.60023303   0.10228045  -0.33101701   0.56928751    1.1237783   0.10079273   0.10260198   0.10344663 
 5890000   0.60232662   0.10487429  -0.32965219   0.57379257    1.1423453   0.10618031   0.10635993   0.10208263 
 5891000   0.60287137   0.10556848  -0.33219418   0.57206767    1.1443838   0.10596659   0.10758165    0.1031572 
 5892000   0.59944332   0.10389036  -0.32802306   0.57109696    1.1343155   0.10711767   0.10065673   0.10389668 
 5893000   0.60440887   0.10442203  -0.32966444   0.57690353    1.1430044   0.10704371   0.10356506   0.10265731 
 5894000   0.60049504   0.10315559  -0.33067649   0.57002103    1.1292562  0.098299584   0.10485796   0.10630924 
 5895000   0.60123125   0.10382379  -0.32929258    0.5725092    1.1353669   0.10752609   0.10233912   0.10160616 
 5896000   0.60585665   0.10494125  -0.33119036   0.57754918    1.1464649   0.10619441   0.10292282   0.10570651 
 5897000   0.60105751   0.10160726  -0.33328405   0.56825714    1.1190984   0.10001518   0.10473409   0.10007251 
 5898000   0.59976207   0.10342802  -0.33064903   0.56894909    1.1296612   0.10326084   0.10372246   0.10330076 
 5899000   0.59866936   0.10021455  -0.33243185   0.56552729    1.1088183   0.10166534   0.10168403  0.097294267 
 5900000   0.60214693    0.1039951  -0.32882998   0.57434525    1.1381316   0.10169083   0.10569416   0.10460031 
 5901000   0.60323833   0.10636174   -0.3288379   0.57597436     1.152591   0.10682594   0.10586204   0.10639724 
 5902000   0.60172376   0.10296644  -0.32920743   0.57333309    1.1315428   0.10200607   0.10144546   0.10544778 
 5903000    0.6001893   0.10498116  -0.33202166   0.56821728    1.1373494   0.10294633   0.10384507   0.10815209 
 5904000   0.60074125   0.10098613  -0.33179938   0.56926744    1.1167414  0.099360685   0.10184851   0.10174919 
 5905000   0.59934787   0.10205474   -0.3314162   0.56756066    1.1208278    0.1027051   0.10104919   0.10240993 
 5906000   0.60394223   0.10370122  -0.32834743   0.57752062    1.1397138   0.10322808   0.10414021   0.10373537 
 5907000   0.60366435   0.10225621  -0.32917035    0.5762809    1.1306403   0.10276747   0.10303931   0.10096184 
 5908000   0.60487943   0.10122292  -0.33169869   0.57557508    1.1243327   0.10082877    0.1047287  0.098111295 
 5909000    0.6015388   0.10197071  -0.33077091   0.57149217    1.1243038    0.1002896   0.10551165   0.10011087 
 5910000   0.59709786   0.10300461  -0.33318942   0.56241259    1.1208293   0.10340711   0.10291804   0.10268867 
 5911000   0.59806378   0.10510406  -0.32986349   0.56718732    1.1369857   0.10580758   0.10510293   0.10440167 
 5912000   0.59720496   0.10314179  -0.33174455    0.5640181    1.1231785    0.1024455   0.10487172   0.10210816 
 5913000   0.59907893   0.10277473   -0.3306454   0.56792807    1.1250985   0.10366295   0.10219709   0.10246414 
 5914000   0.59305091   0.10081607   -0.3286172   0.56091469    1.1074667   0.10179509   0.10280137  0.097851748 
 5915000   0.59588599   0.10325232  -0.33089598   0.56288832    1.1226479   0.10383174   0.10405755   0.10186766 
 5916000   0.59922928   0.10255977  -0.32886217   0.56993681    1.1259419   0.10508622   0.10337945  0.099213647 
 5917000   0.60468494   0.10425041  -0.33048664   0.57649542    1.1416659   0.10494587   0.10367137     0.104134 
 5918000   0.60340696   0.10253077  -0.33126106   0.57380413     1.129652   0.10433121  0.098442733   0.10481836 
 5919000   0.60139193   0.10180599  -0.33345329   0.56858951    1.1205081  0.099754761   0.10308447   0.10257874 
 5920000   0.60271642   0.10299452  -0.32838971   0.57563972    1.1340017   0.10264693   0.10503441    0.1013022 
 5921000   0.60138673     0.102023  -0.33178236   0.57025263    1.1233477   0.10009233   0.10255878   0.10341788 
 5922000   0.60260026   0.10288449  -0.32893057   0.57492462    1.1326901   0.10116431   0.10632788    0.1011613 
 5923000   0.59783399   0.10283065  -0.33016057   0.56654558    1.1240192   0.10399396   0.10496042  0.099537581 
 5924000   0.59360473   0.10166092  -0.33145377   0.55890881     1.110041   0.10210416  0.098851021   0.10402759 
 5925000   0.59630146   0.10261255  -0.33015289   0.56425458    1.1205458   0.10248161   0.10453172   0.10082431 
 5926000   0.60038614   0.10116746  -0.33322758    0.5673066    1.1157636   0.10015049   0.10172087   0.10163101 
 5927000   0.60247669   0.10368515  -0.32894695   0.57472291     1.136829   0.10428976   0.10367809   0.10308758 
 5928000   0.59999183    0.1029678   -0.3310023   0.56894046    1.1271576   0.10229175   0.10605226    0.1005594 
 5929000   0.59813672  0.099525225  -0.33522671   0.56193351    1.1014875  0.098845736   0.10284277  0.096887165 
 5930000   0.60021181   0.10413512  -0.33308776   0.56718495    1.1317305   0.10234609   0.10578507   0.10427422 
 5931000   0.59468207   0.10104932  -0.33207306   0.55990545     1.107722   0.10424209  0.098759831   0.10014604 
 5932000   0.59212163   0.10240941  -0.33069818   0.55743986    1.1126298    0.1041971   0.10268713     0.100344 
 5933000   0.59615068   0.10131808  -0.33133876   0.56284255    1.1121161   0.10346274   0.10091499  0.099576495 
 5934000   0.59722349   0.10319779  -0.33251194    0.5632785    1.1227425   0.10289222   0.10177374   0.10492742 
 5935000   0.59912891   0.10078712  -0.33259033   0.56605811    1.1124531   0.10284688   0.10204833  0.097466141 
 5936000   0.59858053   0.10281182  -0.32975622   0.56806969    1.1254412   0.10387217   0.10143153   0.10313177 
 5937000   0.59372997   0.10057405  -0.33015228   0.56039814    1.1056381  0.099911287  0.099542771   0.10226808 
 5938000   0.59466547   0.10065825  -0.33245501    0.5594986     1.105195   0.10059749   0.10086225   0.10051503 
 5939000   0.59656437  0.099744012   -0.3316572   0.56314462    1.1038847    0.1007136   0.09731424   0.10120419 
 5940000   0.59558618   0.10265213  -0.33210009   0.56123452    1.1177403   0.10150541   0.10291453   0.10353644 
 5941000   0.59919492   0.10104286  -0.33393121   0.56481624    1.1125977   0.10056906   0.10160258   0.10095694 
 5942000   0.59977144   0.10463638  -0.33179583   0.56781635    1.1350793   0.10323869   0.10632381   0.10434665 
 5943000   0.60280174   0.10194915  -0.33063587   0.57352153    1.1262163  0.098508483   0.10527001   0.10206896 
 5944000   0.60595574   0.10486649  -0.33052506    0.5783631    1.1468736   0.10340868   0.10604027   0.10515052 
 5945000   0.59729658   0.10246188   -0.3284307   0.56746938    1.1229438   0.10282412   0.10180862   0.10275289 
 5946000   0.59530264   0.10286949  -0.33043159   0.56247773    1.1201619   0.10313502   0.10604383  0.099429615 
 5947000   0.59782351   0.10369921  -0.32900496   0.56768548    1.1298678   0.10530869    0.1038891   0.10189984 
 5948000   0.59595646   0.10167825  -0.33088801   0.56300198    1.1142281  0.099448081   0.10217196    0.1034147 
 5949000   0.59843632   0.10459164  -0.33231667   0.56529292    1.1323133   0.10246067    0.1033684   0.10794585 
 5950000   0.59970275   0.10279337  -0.33034306    0.5691661    1.1264376   0.10261094   0.10300838   0.10276079 
 5951000   0.60008698   0.10160858  -0.33286723   0.56721824    1.1180667   0.10468757  0.098624958   0.10151323 
 5952000   0.59763446   0.10013629  -0.33112824   0.56527863    1.1081454  0.098333494   0.10041477   0.10166062 
 5953000   0.59722897   0.10359535  -0.33159369   0.56420496    1.1258242   0.10202217   0.10282697    0.1059369 
 5954000   0.59866268   0.10115998  -0.33300005   0.56494907    1.1133655   0.10226701   0.10104781   0.10016511 
 5955000   0.60203676    0.1028495  -0.33176765   0.57124233    1.1288181   0.10282656    0.1016262   0.10409576 
 5956000   0.60535005   0.10536552  -0.32888092   0.57909876    1.1503146   0.10607695   0.10506445   0.10495516 
 5957000   0.60565236   0.10376611  -0.33112197   0.57731114    1.1398562   0.10569762   0.10248466   0.10311606 
 5958000   0.60327158   0.10357945  -0.33129972    0.5735624    1.1350955    0.1037541    0.1036178   0.10336645 
 5959000   0.59909446   0.10192261  -0.32918272   0.56941404    1.1219649   0.10523665   0.10196088  0.098570299 
 5960000   0.59512167   0.10320248  -0.32994397    0.5626939    1.1221833   0.10057409   0.10357032   0.10546301 
 5961000   0.59344718   0.10004987   -0.3278284   0.56229786    1.1046961  0.099293823    0.1004762   0.10037961 
 5962000   0.60158917    0.1029059  -0.33130775   0.57103089    1.1289125     0.103692   0.10351982   0.10150589 
 5963000    0.6011539   0.10510614  -0.32957637   0.57210939     1.141919   0.10534051   0.10590439   0.10407352 
 5964000   0.60148349   0.10199853  -0.33270784   0.56947229    1.1224348  0.097611379   0.10529464   0.10308959 
 5965000   0.60263253   0.10376042  -0.33221474   0.57168887     1.134203    0.1032943   0.10547993   0.10250702 
 5966000   0.61140206   0.10550622  -0.32783008   0.58922715    1.1612057   0.10340843   0.10425199   0.10885823 
 5967000    0.6020544   0.10318318  -0.32956509   0.57347136    1.1328561   0.10282969   0.10542417   0.10129567 
 5968000   0.60010738    0.1053966  -0.33029578   0.56982028    1.1412046    0.1060749   0.10234858   0.10776631 
 5969000   0.60310745   0.10426496  -0.32883399   0.57578195    1.1410313   0.10236221   0.10509881   0.10533385 
 5970000   0.60634823   0.10404352   -0.3320828   0.57739408     1.141443   0.10279927   0.10709999    0.1022313 
 5971000   0.60233365   0.10258309  -0.32978793   0.57366737    1.1297989    0.1028856   0.10374461   0.10111906 
 5972000   0.60320537   0.10188029  -0.33125168   0.57351113    1.1258325   0.10160019  0.099939216   0.10410145 
 5973000   0.60564723   0.10336349  -0.33037373   0.57805169     1.138414   0.10215742   0.10582911   0.10210395 
 5974000    0.6034777   0.10269559  -0.33269141   0.57247989    1.1292213   0.10282372   0.10283919   0.10242387 
 5975000   0.60226834   0.10151128  -0.33324934   0.57010801    1.1204289  0.099919443   0.10250879    0.1021056 
 5976000   0.59845729   0.10166795  -0.33135415   0.56628691    1.1174572   0.10286038   0.10131485   0.10082861 
 5977000   0.60062848   0.10332828  -0.33202597    0.5688717    1.1290431   0.10892313   0.10039561   0.10066611 
 5978000   0.59711181   0.10107931  -0.32964545   0.56597748    1.1139565  0.098691884   0.10058267   0.10396336 
 5979000   0.59282574  0.099295098  -0.33261851   0.55657564     1.094882  0.097615831   0.10174817  0.098521291 
 5980000   0.60288335   0.10125343  -0.33138934   0.57289047    1.1218135  0.099562598   0.10449384  0.099703848 
 5981000   0.60207312   0.10381564  -0.32988323   0.57318129    1.1359948    0.1032352   0.10490636   0.10330538 
 5982000   0.60408702   0.10214241  -0.32914172    0.5769435    1.1306859   0.10500703   0.10210121  0.099318977 
 5983000   0.60217294   0.10228395  -0.33319576   0.57001849    1.1245283   0.10178605   0.10543785  0.099627934 
 5984000    0.6022315   0.10278888  -0.32799677   0.57530531    1.1325524   0.10154635    0.1048228   0.10199748 
 5985000   0.60268891   0.10442926  -0.32797181   0.57601636    1.1421565   0.10173466    0.1041505   0.10740262 
 5986000   0.60096874   0.10640719  -0.32975006   0.57165797     1.148521    0.1047188   0.10472978   0.10977298 
 5987000   0.60274428   0.10267752  -0.33357389   0.57049731    1.1271407   0.10314402   0.10200074   0.10288779 
 5988000   0.60462553   0.10261487  -0.33013373   0.57675921     1.133063    0.1029098   0.10318936   0.10174546 
 5989000    0.6032812    0.1037401  -0.33196301   0.57291355    1.1353175   0.10666625   0.10511635  0.099437696 
 5990000   0.60314454   0.10192385   -0.3299651   0.57470646     1.127264   0.10083894   0.10269212   0.10224048 
 5991000   0.59884199   0.10422638  -0.32773252   0.57048556    1.1355258   0.10340038   0.10770491   0.10157384 
 5992000   0.59723328  0.098837313  -0.33453906   0.56126608    1.0970907  0.099943171  0.098740009  0.097828758 
 5993000    0.5950197   0.10348076  -0.33240644   0.56007848    1.1210765   0.10498962    0.1016718   0.10378085 
 5994000   0.59340954  0.099406803  -0.33257982   0.55748997    1.0964019   0.10210842  0.096665805  0.099446181 
 5995000   0.59887163   0.10382953  -0.32959638   0.56866614    1.1315549   0.10394037   0.10315962   0.10438859 
 5996000    0.6029336   0.10412027  -0.32929991   0.57505527    1.1395203   0.10452044   0.10286498    0.1049754 
 5997000   0.60298339   0.10335249    -0.331965   0.57246485    1.1327675   0.10438308   0.10274833   0.10292605 
 5998000   0.60130122   0.10165986  -0.32902378   0.57288296    1.1240094  0.097278375   0.10306854   0.10463266 
 5999000   0.60185111   0.10303072  -0.33040878   0.57232274     1.130881   0.10627665   0.10193519   0.10088034 
 6000000   0.60509339    0.1022576  -0.33233055   0.57526415    1.1296311   0.10212196   0.10271698   0.10193387 
Loop time of 3608.07 on 1 procs for 1000000 steps with 20000 atoms

Performance: 119731.446 tau/day, 277.156 timesteps/s
99.9% CPU use with 1 MPI tasks x 1 OpenMP threads

MPI task timing breakdown:
Section |  min time  |  avg time  |  max time  |%varavg| %total
---------------------------------------------------------------
Pair    | 2140       | 2140       | 2140       |   0.0 | 59.31
Neigh   | 1087       | 1087       | 1087       |   0.0 | 30.13
Comm    | 76.731     | 76.731     | 76.731     |   0.0 |  2.13
Output  | 25.061     | 25.061     | 25.061     |   0.0 |  0.69
Modify  | 242.6      | 242.6      | 242.6      |   0.0 |  6.72
Other   |            | 36.65      |            |       |  1.02

Nlocal:    20000 ave 20000 max 20000 min
Histogram: 1 0 0 0 0 0 0 0 0 0
Nghost:    8887 ave 8887 max 8887 min
Histogram: 1 0 0 0 0 0 0 0 0 0
Neighs:    169526 ave 169526 max 169526 min
Histogram: 1 0 0 0 0 0 0 0 0 0

Total # of neighbors = 169526
Ave neighs/atom = 8.4763
Neighbor list builds = 100000
Dangerous builds = 99900

write_restart 	out.restart.sys.final.${temp}
write_restart 	out.restart.sys.final.0.6
unfix intg
unfix ploadx
undump  trj
uncompute denprof
unfix   denprof

next    t
jump    SELF temperatureloop
variable t loop 10
variable  temp  equal 0.1+($t-1)*0.1
variable  temp  equal 0.1+(7-1)*0.1

#OUTPUT
# density profile
compute denprof all chunk/atom bin/1d x center ${xbin}
compute denprof all chunk/atom bin/1d x center 0.05
fix     denprof all ave/chunk 100 1000 500000 denprof density/number file out.profile.density.${temp}.data
fix     denprof all ave/chunk 100 1000 500000 denprof density/number file out.profile.density.0.7.data

#OUTPUT
log   log.lammps.${temp}
log   log.lammps.0.7
