thermo 1000
thermo_style custom step temp press pe etotal enthalpy pxx pyy pzz
dump 		trj all atom 500 out.sys_nvt.${temp}.lammpstrj
dump 		trj all atom 500 out.sys_nvt.0.2.lammpstrj
restart 100000 out.restart1.${temp} out.restart2.${temp}
restart 100000 out.restart1.0.2 out.restart2.${temp}
restart 100000 out.restart1.0.2 out.restart2.0.2

fix ploadx all balance 10000 1.05 shift x 20 1.05
fix intg all nvt temp ${temp} ${temp} ${tdump}
fix intg all nvt temp 0.2 ${temp} ${tdump}
fix intg all nvt temp 0.2 0.2 ${tdump}
fix intg all nvt temp 0.2 0.2 1
run ${Nrun}
run 1000000
Per MPI rank memory allocation (min/avg/max) = 12.55 | 12.55 | 12.55 Mbytes
Step Temp Press PotEng TotEng Enthalpy Pxx Pyy Pzz 
 1000000  0.099922971 -0.023938336   -2.1172371   -1.9673601   -2.0971365 -0.0024278432 -0.033694809 -0.035692354 
 1001000   0.14408325 -0.0041660849    -2.035559   -1.8194449   -1.8420304 0.0002307518 -0.0060234698 -0.0067055367 
 1002000   0.18731668  0.015348426   -1.9132268   -1.6322658   -1.5490577 0.0031053486  0.022599676  0.020340253 
 1003000   0.19975189 0.0029387405   -1.8387092   -1.5390964   -1.5231647 -0.010324027  0.010541927 0.0085983209 
 1004000   0.20311429 -0.0012778807     -1.80913   -1.5044738   -1.5114015 -0.0083241718   0.00462889 -0.0001383604 
 1005000    0.2004837  0.010350595   -1.8008176   -1.5001071   -1.4439936  0.012591049 0.0075324722  0.010928264 
 1006000   0.20160819 0.0021763155   -1.7729552    -1.470558   -1.4587596 0.00034956512 0.0039555792 0.0022238022 
 1007000   0.20166923 -0.00086281449    -1.749346   -1.4468573   -1.4515349 -0.0015560062 -0.00018437922 -0.00084805807 
 1008000   0.19899039 0.00047471073   -1.7322457    -1.433775   -1.4312015 -9.0593688e-05 0.0029181033 -0.0014033775 
 1009000   0.19880935 -0.0015444765   -1.7155607   -1.4173616   -1.4257346 -0.00086791895 -0.001612415 -0.0021530956 
 1010000   0.19916865 -0.00019066025   -1.6942872   -1.3955492   -1.3965828 0.00054604331 -0.0024204425 0.0013024184 
 1011000   0.19864969 0.0017833445   -1.6707002   -1.3727405   -1.3630725 0.0034140871 0.0037099996 -0.0017740531 
 1012000   0.20035542  0.001743898   -1.6540683   -1.3535502   -1.3440961  0.005322625 0.0034175155 -0.0035084465 
 1013000    0.1995437 -0.0033895277   -1.6295481   -1.3302475   -1.3486231 -0.0022074125 -0.0050746108 -0.0028865596 
 1014000   0.19901151 -0.00017839874   -1.6124851   -1.3139827   -1.3149499 0.0011847201 -0.0021662976 0.00044638133 
 1015000   0.19759902 0.0024991338   -1.5909698   -1.2945861   -1.2810376 0.0027363281 0.0034881577 0.0012729157 
 1016000   0.19891466 -0.0011959171   -1.5721813   -1.2738243   -1.2803077 0.00015637041 0.0015990591 -0.0053431809 
 1017000   0.20175953 -0.0035391906   -1.5615913   -1.2589671   -1.2781541 0.00015277764 -0.0065226864 -0.0042476632 
 1018000   0.20226071 -0.0045436386   -1.5547549   -1.2513791   -1.2760114 -0.00084793239 -0.0047252621 -0.0080577212 
 1019000   0.20063331 -0.0020999703   -1.5587936   -1.2578587   -1.2692432 0.0014218433 -0.0061551602 -0.0015665939 
 1020000   0.19883595 -0.00018566305    -1.560533    -1.262294   -1.2633005 0.0019008535 8.451357e-05 -0.0025423562 
 1021000   0.19943473 0.00052952792   -1.5559838   -1.2568467    -1.253976 0.0021733726 0.0019708101 -0.002555599 
 1022000   0.20190932 -0.0019481112   -1.5548888   -1.2520399   -1.2626012 0.0018270583 -0.0023662539 -0.0053051378 
 1023000   0.20053285 -0.0020474491   -1.5510251   -1.2502408   -1.2613406 0.0014266623 -0.0034137364 -0.0041552731 
 1024000   0.19874237 -0.0033590159   -1.5528966   -1.2547979   -1.2730081 -0.0024116273 -0.0034515827 -0.0042138378 
 1025000   0.19970655 -0.00070443934   -1.5554407   -1.2558959   -1.2597148 0.0029844062 -0.0010395364 -0.0040581878 
 1026000   0.20125423 -0.0013020446   -1.5570634   -1.2551971   -1.2622559   0.00278093 -0.00075532046 -0.0059317435 
 1027000   0.19978328 -0.0013079385   -1.5545681   -1.2549082   -1.2619989 0.0015495347 -0.0030920012 -0.0023813489 
 1028000   0.20098231 -0.00076860323   -1.5455849   -1.2441265   -1.2482933 0.0029647715  -0.00340646 -0.0018641211 
 1029000   0.20008149 -0.0032010141   -1.5485338   -1.2484266   -1.2657802 -0.0021185278 -0.0042508726 -0.0032336421 
 1030000   0.19886575 -0.0020464019   -1.5525918   -1.2543081   -1.2654022 0.0031820239 -0.002951852 -0.0063693775 
 1031000   0.19947279 -0.0057870736   -1.5525321   -1.2533379   -1.2847112 -0.004056912  -0.00633583 -0.0069684788 
 1032000   0.19869374 -0.0034410058   -1.5470954   -1.2490697   -1.2677243 -0.0022656497 -0.0074928031 -0.00056456475 
 1033000   0.19961921 -0.0029591363   -1.5517251   -1.2523113   -1.2683536 0.00069126024 -0.0061371031 -0.0034315661 
 1034000    0.1990793 -0.0022684412   -1.5499908   -1.2513868   -1.2636847 0.0023803296  0.001458589 -0.010644242 
 1035000    0.1981458 -0.0044935525   -1.5470133   -1.2498095   -1.2741703 0.0013937399 -0.0071370866 -0.0077373108 
 1036000    0.1994205 -0.0049552931   -1.5469095   -1.2477937   -1.2746577 -0.0047199513 -0.0044176107 -0.0057283174 
 1037000   0.19963108 -0.00096094443   -1.5498208   -1.2503891   -1.2555987 -0.0019369022 -0.00049402889 -0.00045190216 
 1038000   0.20030361 0.00075852061   -1.5513901   -1.2509497   -1.2468376 0.00098200656 -0.00033012158 0.0016236768 
 1039000   0.20068229 -9.8032293e-05   -1.5481944    -1.247186   -1.2477175 0.00070132485 -0.00066586422 -0.00032955751 
 1040000   0.20009303 -0.0018576345   -1.5480641   -1.2479396   -1.2580103 -0.0009865576 -0.00073250612 -0.0038538398 
 1041000     0.199948 -0.0013885995   -1.5480174   -1.2481104   -1.2556384 0.0013654281 0.0018026238 -0.0073338503 
 1042000   0.20014159 -0.0037934416   -1.5528255   -1.2526281   -1.2731934 -0.0014453126 -0.0048162049 -0.0051188074 
 1043000   0.19923437 -0.00075745839   -1.5511677   -1.2523311   -1.2564375 0.00074275553 -0.00014632594 -0.0028688048 
 1044000   0.19928339 -0.0013026007   -1.5439053   -1.2449952   -1.2520569 0.0016855639 -0.0045353376 -0.0010580285 
 1045000   0.20063442 -0.0032977869   -1.5439351   -1.2429985   -1.2608767 -0.0016492072 -0.0049714538 -0.0032726997 
 1046000   0.20046139  0.003112158   -1.5472146   -1.2465376   -1.2296657 0.0071124393 0.0015718048 0.00065223009 
 1047000   0.20229875 -0.0001199137   -1.5486679   -1.2452349    -1.245885 0.0024398479 -0.0040670484 0.0012674595 
 1048000   0.20014353 8.7636225e-05   -1.5416285   -1.2414282   -1.2409531 0.0035787014 -0.0032688735 -4.6919137e-05 
 1049000   0.20113873 0.00022958867   -1.5433631   -1.2416701   -1.2404254 0.0006195668 -0.0003427886 0.00041198782 
 1050000   0.19945786 -0.0018900259   -1.5491531   -1.2499813   -1.2602277 0.0019202386 -0.0025955208 -0.0049947955 
 1051000   0.19888248 -0.0049010262   -1.5499978    -1.251689   -1.2782588 -0.0021751625 -0.0056475703 -0.0068803457 
 1052000   0.19979181 -0.0039134068   -1.5505495   -1.2508768   -1.2720925 0.0025157142 -0.0089715523 -0.0052843823 
 1053000   0.20026703 -0.0027855295   -1.5500187   -1.2496332   -1.2647343 -0.0015546856 -0.0035892694 -0.0032126334 
 1054000   0.20074097 -0.0016509042   -1.5486263   -1.2475299   -1.2564799 0.00094099136 -0.003699076 -0.0021946281 
 1055000   0.20003852 -0.0029004586   -1.5491381   -1.2490954   -1.2648195 0.00042290556 -0.0037619815 -0.0053622998 
 1056000   0.19850219 -0.0035846469   -1.5493199   -1.2515815   -1.2710149 -0.0047739925 -0.0037893823 -0.0021905658 
 1057000   0.19848456 -0.0031471793   -1.5458518   -1.2481398   -1.2652016 -0.0011709872 -0.0036079404 -0.0046626103 
 1058000   0.20071474 -0.0018831179   -1.5462869   -1.2452298   -1.2554387 0.0009392557 -0.00098576182 -0.0056028474 
 1059000   0.20018095 -0.00043450014   -1.5450709   -1.2448145   -1.2471701 0.00071428849 0.00014827548 -0.0021660644 
 1060000   0.20008259 -0.0023153679   -1.5446368    -1.244528   -1.2570802 -0.0024298649 -0.0045910017 7.4762979e-05 
 1061000   0.20072671 -0.0019240251   -1.5468607   -1.2457857   -1.2562164 -0.0001255209 -0.00052627324 -0.0051202813 
 1062000   0.19894714 0.0021815585   -1.5454831   -1.2470773   -1.2352505 0.0019683304 0.0034292638 0.0011470814 
 1063000   0.20036434 -0.0021107211   -1.5397672   -1.2392358   -1.2506786 0.0033823244 -0.0053357301 -0.0043787576 
 1064000   0.20196616 0.00083486868   -1.5365078   -1.2335737   -1.2290476 0.0031454182 -0.00037215307 -0.00026865904 
 1065000   0.20026715 -0.0041910994   -1.5399238   -1.2395381   -1.2622592 0.00021195414 -0.0050041985 -0.0077810537 
 1066000   0.20186762 -0.0035838514   -1.5428766   -1.2400903   -1.2595194 0.00037369891 -0.0064433976 -0.0046818556 
 1067000   0.20017091 -0.00016025607   -1.5394796   -1.2392383   -1.2401071 0.0041829394 -0.003856226 -0.00080748167 
 1068000    0.1997743 -0.0015214879   -1.5430219   -1.2433754   -1.2516238  0.002245243 -0.0054918625 -0.0013178441 
 1069000   0.19963617 0.0033618537   -1.5434737   -1.2440344   -1.2258089 0.0051742897 0.0047382884  0.000172983 
 1070000   0.20136756 0.0026537015   -1.5437108   -1.2416746   -1.2272881 0.0061320327 -0.0031310385 0.0049601104 
 1071000   0.20033676 0.00041530937   -1.5413929   -1.2409028   -1.2386512 -0.00018509743 -0.0013875884  0.002818614 
 1072000   0.19947594 -0.0025554575   -1.5403053   -1.2411064   -1.2549602  0.002516106 -0.0068891654 -0.0032933132 
 1073000   0.19978219 -0.0054336715   -1.5415839   -1.2419255    -1.271383 -0.0048197754 -0.007474401 -0.0040068383 
 1074000   0.20109775 -0.0030565521   -1.5417225   -1.2400909   -1.2566613 0.0021750944 -0.0071738143 -0.0041709365 
 1075000   0.19844518 -0.0015435752   -1.5418552   -1.2442023   -1.2525704 0.0027367622 -0.0041231351 -0.0032443525 
 1076000   0.20051728 -0.00042583776   -1.5414695   -1.2407086   -1.2430172 0.00072556879 0.00028635146 -0.0022894335 
 1077000   0.19920173 -0.00074472146   -1.5417731   -1.2429854   -1.2470227 0.0026270332 -0.00071859449 -0.0041426031 
 1078000   0.19836622 -0.0021841944   -1.5380439   -1.2405094   -1.2523505 -0.0017725393 -0.0028003144 -0.0019797294 
 1079000   0.20005262 -0.00055344708   -1.5400849    -1.240021   -1.2430213 0.00058598696 -0.0018361498 -0.00041017838 
 1080000   0.19915342 -0.0026860243   -1.5454654   -1.2467502   -1.2613119 0.0010121763 -0.0058529257 -0.0032173235 
 1081000   0.19811747 -0.0031342997   -1.5405724    -1.243411    -1.260403 0.0023523838 -0.0068540391 -0.0049012438 
 1082000   0.19952144  -0.00623957   -1.5409876   -1.2417204   -1.2755469 -0.0022726036 -0.0067900344 -0.0096560721 
 1083000   0.19829899 -0.003832599   -1.5387446    -1.241311   -1.2620886 -0.001657694 -0.0059888447 -0.0038512582 
 1084000   0.20095524 -0.0015103877    -1.543381   -1.2419632   -1.2501515 0.0018742695 -0.0018689838 -0.004536449 
 1085000   0.20122419 -0.0019578303   -1.5434143   -1.2415931   -1.2522071 0.0036397353 -0.0033894042 -0.0061238222 
 1086000   0.20070817 -0.00017296516   -1.5389169   -1.2378697   -1.2388074 0.0036800687 -0.0015510717 -0.0026478924 
 1087000   0.20038344 -0.00022011196   -1.5382149   -1.2376548   -1.2388481 0.0031206535 -0.0004966786 -0.0032843108 
 1088000   0.19990648 6.8658143e-05   -1.5357849   -1.2359402    -1.235568 0.0061558509 -0.0018521133 -0.0040977631 
 1089000   0.20007996 0.0005088281   -1.5387939   -1.2386889   -1.2359304 0.0028037919 -0.00073525481 -0.00054205281 
 1090000   0.19847646 -0.0021041529   -1.5349152   -1.2372154   -1.2486226 3.2151777e-06 -0.0059660086 -0.00034966539 
 1091000   0.19835259 -0.0040407708   -1.5421716   -1.2446576   -1.2665637 -0.0011034788 -0.0041159237  -0.00690291 
 1092000   0.20045593 -0.00085626585   -1.5435977   -1.2429289   -1.2475709 0.0036677379 -0.0014782469 -0.0047582886 
 1093000   0.19958344 0.0029143178    -1.540384   -1.2410239   -1.2252245  0.005736764 -0.00086534242 0.0038715318 
 1094000   0.20024861 -0.0037843641   -1.5395604   -1.2392025   -1.2597186 -0.0012662976 -0.0052956985 -0.0047910961 
 1095000   0.20007858 -0.0041149877   -1.5338419    -1.233739   -1.2560475 0.00039302232 -0.0048941793 -0.007843806 
 1096000   0.19829757 -0.0024265816   -1.5361913   -1.2387598   -1.2519149 0.00087615833 -0.005284542 -0.0028713612 
 1097000   0.19976599 -0.00067524898   -1.5394966   -1.2398626   -1.2435233 0.0042117655 -0.0057583562 -0.00047915615 
 1098000   0.19993467 0.00016941205   -1.5407323   -1.2408453   -1.2399269 0.0031131862 -0.0015685883 -0.0010363617 
 1099000   0.19833411 -0.001826392   -1.5372527   -1.2397665   -1.2496678 -0.0011429707 -0.0025761518 -0.0017600535 
 1100000    0.2016284 -0.0048663033   -1.5408775     -1.23845   -1.2648316 -0.0006697392 -0.0051573826 -0.008771788 
 1101000   0.19877076 -0.0015001773   -1.5327731   -1.2346319   -1.2427648 -0.00012170799 -0.003066458 -0.0013123658 
 1102000   0.20201068 -0.0038717087   -1.5343936   -1.2313928   -1.2523824 -0.003105768 -0.0024860044 -0.0060233535 
 1103000   0.20075048 -0.00022558861   -1.5357099   -1.2345993   -1.2358222 0.0014440899 -0.0011489028 -0.00097195289 
 1104000   0.20124345 0.0017844603   -1.5397695   -1.2379194   -1.2282453 0.0086270104 -0.0010999994  -0.00217363 
 1105000   0.19909614 -0.00012135018   -1.5352896   -1.2366603   -1.2373182 0.0031267279 -0.00070386389 -0.0027869146 
 1106000   0.19963619 -0.003178921   -1.5352758   -1.2358365   -1.2530703 -0.00045692041 -0.0049337546 -0.0041460879 
 1107000   0.19879206 -0.0048537954   -1.5355687   -1.2373955   -1.2637093 -0.0014856793 -0.007118385 -0.005957322 
 1108000   0.19866576 -0.0031368767   -1.5373221   -1.2393384   -1.2563443 0.0023910348 -0.0086947588 -0.003106906 
 1109000   0.19880501 -0.002111102    -1.536424   -1.2382314   -1.2496763 -0.0020896567 -0.0013923394 -0.0028513099 
 1110000   0.19971989 -0.0042615406   -1.5359256   -1.2363608   -1.2594638 0.00038158294 -0.0059960741 -0.0071701306 
 1111000   0.20143822 -0.0032590687   -1.5332331   -1.2310909   -1.2487592 -0.0016675622 -0.0053689008 -0.0027407431 
 1112000   0.20090558 0.0016038429   -1.5348355   -1.2334922   -1.2247973 0.0033511575 0.0016807674 -0.00022039604 
 1113000    0.2008823 0.0013200528   -1.5354594    -1.234151   -1.2269946  0.006510409 -0.0008867609 -0.0016634898 
 1114000   0.20074258 -0.0019864674   -1.5342239   -1.2331251   -1.2438943 0.0042919161 -0.0042028465 -0.0060484719 
 1115000   0.20052518 -0.0025036512   -1.5368089   -1.2360361   -1.2496091 0.0012028357 -0.0033763424 -0.0053374468 
 1116000    0.1995228 -0.0024481407   -1.5371595   -1.2378903   -1.2511623 -0.00049441737 -0.0012615322 -0.0055884726 
 1117000   0.19747695 0.0022130018   -1.5327648   -1.2365642   -1.2245669 0.0023703229 0.0034158769 0.00085280546 
 1118000   0.19886596 -0.0030281697   -1.5361516   -1.2378675   -1.2542841 -0.0012873892 -0.0052508268 -0.0025462929 
 1119000   0.19954336 -0.00097763471   -1.5336668   -1.2343667   -1.2396667 -0.00032731369 0.00055607993 -0.0031616704 
 1120000   0.20052188 -0.00047573277    -1.540664   -1.2398962   -1.2424753 0.0043335454 -0.003181513 -0.0025792307 
 1121000   0.19881459 -0.0028685272   -1.5410702   -1.2428632   -1.2584143 0.0028080968  -0.00439157 -0.0070221083 
 1122000    0.1993513 -0.0019755328   -1.5374246   -1.2384126   -1.2491225 0.0035170621 -0.004297918 -0.0051457426 
 1123000   0.19981937 -0.0024871496   -1.5318661    -1.232152   -1.2456356 0.00020331203 -0.0033954585 -0.0042693023 
 1124000    0.1992353 -0.0012278236   -1.5346489   -1.2358108   -1.2424672 0.0019710776 -0.0020539319 -0.0036006165 
 1125000   0.19744371 -0.0022492692   -1.5332479   -1.2370971    -1.249291 0.0016115648 -0.0019317637 -0.0064276086 
 1126000   0.19949069 -0.0038106247    -1.537494   -1.2382729   -1.2589314 -0.0050445314 -0.0032129241 -0.0031744188 
 1127000   0.19935119 -0.0010239714   -1.5400593   -1.2410474   -1.2465987 0.0046021109 -0.0018539244 -0.0058201008 
 1128000   0.20126337 0.0014129405   -1.5365919   -1.2347119   -1.2270519 0.0051435597 0.00050679082 -0.001411529 
 1129000   0.19938779 -0.0024494238   -1.5335693   -1.2345025   -1.2477815 -0.0016312123 -0.0013116984 -0.0044053606 
 1130000    0.1997879 -0.002557797   -1.5351621   -1.2354952   -1.2493618 0.0015155705 -0.0041263429 -0.0050626187 
 1131000   0.20209254 0.00037242318   -1.5328068   -1.2296831   -1.2276641 0.00050383412 0.0029413705 -0.0023279351 
 1132000    0.2019907 -0.0027252053   -1.5307052   -1.2277343   -1.2425084 -0.00060599245 -0.0019195468 -0.0056500766 
 1133000   0.20087569 -0.0014028251   -1.5275499   -1.2262514   -1.2338565 0.0023990896 -0.0037426795 -0.0028648855 
 1134000   0.20255888 -0.001376234   -1.5335446   -1.2297214   -1.2371824 0.0013807613 -0.0061093914 0.0005999281 
 1135000   0.20037902 0.00060277772   -1.5336273   -1.2330738    -1.229806 0.0059802536 -0.0031862884 -0.00098563208 
 1136000    0.2014062 -0.002407399   -1.5319694   -1.2298752   -1.2429264 0.00086596372 -0.0016989487 -0.0063892119 
 1137000   0.19907659 -0.0047170369   -1.5372197   -1.2386197   -1.2641921 -0.0037722724 -0.0050301698 -0.0053486684 
 1138000   0.19954457 0.0010857284   -1.5397698   -1.2404679   -1.2345819 0.0012032753 0.00024256775 0.0018113421 
 1139000   0.19928849 -0.00026108119   -1.5329822   -1.2340644   -1.2354798 0.0019451844 -0.0045521785 0.0018237505 
 1140000   0.20055952 -0.0013796084   -1.5316719   -1.2308476   -1.2383269 0.0037638563 -0.0037119399 -0.0041907417 
 1141000    0.1983954 -0.0037720381   -1.5379759   -1.2403976   -1.2608469 0.0016516868 -0.0050185068 -0.0079492943 
 1142000   0.20152889 -0.0022294886   -1.5431426   -1.2408644   -1.2529511 0.00027403146 -0.0034768621 -0.0034856353 
 1143000    0.2002749  0.003103244   -1.5383949   -1.2379975    -1.221174 0.0063515001 0.0017019172 0.0012563147 
 1144000   0.19780498 -0.00084727838   -1.5333814   -1.2366887   -1.2412821 0.0025715392 -0.0023944009 -0.0027189734 
 1145000   0.19938412 -0.0045902969   -1.5319602    -1.232899   -1.2577843 -0.0031233977 -0.0038205776 -0.0068269156 
 1146000   0.20082451 -0.00059356641   -1.5332537   -1.2320319   -1.2352498 -0.0010074126 -0.0013756874 0.00060240078 
 1147000   0.20192958 -0.0063937128   -1.5439935   -1.2411143   -1.2757764 -0.0029613515 -0.0096298201 -0.0065899667 
 1148000    0.1978795 -0.0015437776   -1.5369792   -1.2401748    -1.248544 -0.0014867159 0.0023195097 -0.0054641266 
 1149000   0.19969751 -0.001432824   -1.5343925   -1.2348612   -1.2426289 -0.0014807086 0.00084204835 -0.0036598118 
 1150000   0.19902204 -0.0030990506   -1.5324679   -1.2339497   -1.2507506 -0.0025807732 -0.0019070033 -0.0048093752 
 1151000   0.19923876 -0.0019771101   -1.5336463   -1.2348031   -1.2455216 -0.002489898 -0.0022898465 -0.0011515858 
 1152000   0.20008773 0.00075938547   -1.5348184   -1.2347018   -1.2305849 0.0063085812 -0.0012576932 -0.0027727316 
 1153000   0.20115892 -0.00057622211   -1.5342756   -1.2325523   -1.2356762 0.0026550089 -0.0037599913 -0.00062368392 
 1154000   0.20003169 -0.0021197272    -1.534777   -1.2347444    -1.246236 -0.00029855894 -0.0039672371 -0.0020933856 
 1155000    0.1988653 -0.0032104077   -1.5346395   -1.2363565    -1.253761 -0.0013662405 -0.0035855378 -0.0046794448 
 1156000   0.19989457 -0.0024096162   -1.5360506   -1.2362237   -1.2492869 -0.0011976248 -0.00076747823 -0.0052637455 
 1157000   0.19936599 -0.0012038417    -1.534844     -1.23581   -1.2423364 0.0024797536 -0.0020820808 -0.0040091978 
 1158000   0.20086081 -0.001071029   -1.5317371    -1.230461   -1.2362673 0.0018606444 -0.0026556756 -0.0024180558 
 1159000   0.20048127 -0.0013148457   -1.5325721   -1.2318652   -1.2389934 0.0031371999 -0.002243701 -0.004838036 
 1160000   0.20154576 -0.0020078156   -1.5357159   -1.2334124   -1.2442973 -0.0021654524 -0.0016786869 -0.0021793074 
 1161000   0.20083306 -0.0011626555   -1.5390033   -1.2377688   -1.2440719 0.0017699199 -0.0031985253 -0.0020593609 
 1162000   0.20013389 -0.00084700154   -1.5375634   -1.2373776   -1.2419694 0.0016402169 -0.0012289269 -0.0029522946 
 1163000   0.20118468 -0.0018406521    -1.535831   -1.2340691   -1.2440478 -0.00068822836 -0.0040935161 -0.0007402119 
 1164000   0.19932433 -0.0026457615   -1.5327624   -1.2337909   -1.2481343 8.0536203e-05 -0.0049646826 -0.0030531381 
 1165000   0.19992107  0.001537856   -1.5302233   -1.2303567   -1.2220196 0.0034382211 -0.00027530323 0.0014506501 
 1166000   0.20197764 -0.00061684166   -1.5344459   -1.2314946   -1.2348386 0.0015862766 -0.0010945089 -0.0023422927 
 1167000   0.19739662 -0.0014746604   -1.5350608   -1.2389807   -1.2469752 0.0021710232 -0.0029845577 -0.0036104466 
 1168000   0.20018241 -0.0020751224   -1.5371175   -1.2368589   -1.2481087 -0.0029499373   -0.0026599 -0.00061552998 
 1169000   0.20010805 0.00011405295    -1.539337   -1.2391899   -1.2385716 0.0027568133 -0.00099155326 -0.0014231012 
 1170000   0.20189691 -0.00098007286   -1.5418924   -1.2390622   -1.2443754 0.0024114038 -0.0049290509 -0.00042257155 
 1171000   0.19965678 -0.00043972367   -1.5406469   -1.2411767   -1.2435605 0.0033113667 -0.00059556079 -0.004034977 
 1172000    0.1987902 -0.0010235066   -1.5368394    -1.238669   -1.2442177 0.0018508005 -0.0019014686 -0.0030198516 
 1173000   0.19986567 -0.0029262886   -1.5301941   -1.2304106   -1.2462748 -0.00030847473   -0.0044164 -0.0040539911 
 1174000   0.19989668 0.00071116774   -1.5284754   -1.2286453   -1.2247899 0.0046154709 -0.0016549923 -0.00082697537 
 1175000   0.19846129 -0.001779418   -1.5361072   -1.2384301   -1.2480768 -0.00012539565 -0.002096385 -0.0031164732 
 1176000    0.2009423 -0.001911336   -1.5412773    -1.239879   -1.2502408 0.00085223013 -0.0025070009 -0.0040792374 
 1177000   0.20040477 -0.0045505315   -1.5379887   -1.2373966   -1.2620663 -0.0015013837 -0.0053667872 -0.0067834237 
 1178000   0.19997647 -0.0053472374    -1.533916   -1.2339663   -1.2629552 -0.004086123 -0.0058708623 -0.0060847269 
 1179000   0.20186252 0.0026487923    -1.536565   -1.2337863   -1.2194265 0.0066353997 0.00025482965 0.0010561475 
 1180000   0.20103747 -0.002147965   -1.5368405   -1.2352994   -1.2469441 0.0049872366 -0.0044299347 -0.007001197 
 1181000   0.19798666 -0.0049329244   -1.5311575   -1.2341923   -1.2609351 -0.004751784 -0.0054719949 -0.0045749943 
 1182000   0.19949407 -0.0024336694   -1.5338706   -1.2346445   -1.2478381 0.00017747131 -0.0080110763 0.00053259671 
 1183000   0.19844443  0.001157893   -1.5400042   -1.2423524   -1.2360751 0.00035682174 0.0029535947 0.00016326257 
 1184000   0.20087825 0.0012866414   -1.5444776   -1.2431752      -1.2362 0.0043943388 -0.00081690426 0.00028248968 
 1185000    0.1987773 0.00064092543   -1.5361976   -1.2380466   -1.2345719 0.0036773077 -0.0050588453 0.0033043138 
 1186000   0.19719643 -0.0061219947   -1.5332741   -1.2374943   -1.2706833 -0.0058186733 -0.0060323279 -0.0065149827 
 1187000   0.19923319 -0.002944652   -1.5352753   -1.2364404   -1.2524042 -0.0021775982 -0.0053140603 -0.0013422975 
 1188000    0.1980255 0.00041948674   -1.5383363   -1.2413129   -1.2390388 0.0039482381 -0.0011254412 -0.0015643367 
 1189000   0.19921029 -0.0030720777   -1.5421377   -1.2433372   -1.2599918 -0.002405934 -0.0020825846 -0.0047277143 
 1190000   0.19938768 -0.0023176649   -1.5372947   -1.2382281   -1.2507928 0.00020751942 -0.0030457525 -0.0041147615 
 1191000   0.19922374 -0.0024039469   -1.5360877    -1.237267   -1.2502995 0.0018197486 -0.0045574645 -0.0044741249 
 1192000   0.20052895 -0.0010063076   -1.5412188   -1.2404404   -1.2458959  0.003030153 -0.0043677462 -0.0016813295 
 1193000   0.20110245 -0.00063869849   -1.5399185   -1.2382799   -1.2417425 -0.00021246606 0.0007067928 -0.0024104222 
 1194000   0.20081951 -0.0028220526   -1.5371828   -1.2359686   -1.2512677 -0.00078202382 -0.00050741537 -0.0071767185 
 1195000   0.19963119 -0.00029745317   -1.5332088    -1.233777   -1.2353896 0.00053841555 -0.00015611179 -0.0012746633 
 1196000   0.20005486 -0.00011287099   -1.5354726   -1.2354053   -1.2360172 0.0014375465 -0.00049307782 -0.0012830816 
 1197000   0.19921506  0.001562969   -1.5367002   -1.2378925   -1.2294192 0.0037858253 0.0010939796 -0.00019089789 
 1198000   0.20200235 0.00099335443   -1.5409147   -1.2379264   -1.2325411 0.0018523542 0.00078319174 0.0003445174 
 1199000   0.19928284 0.0017384072   -1.5379981   -1.2390888   -1.2296644   0.00541493 -0.0025212593  0.002321551 
 1200000   0.20030411 -0.0035391417   -1.5368201    -1.236379   -1.2555657 -0.0013470447 -0.0053171382 -0.0039532421 
 1201000    0.1992581 -0.0051500229   -1.5330334   -1.2341612   -1.2620809 -0.0037462712 -0.0037851809 -0.0079186166 
 1202000   0.20078557 5.934405e-05   -1.5338378   -1.2326745   -1.2323528 0.00073274853 -0.00018674391 -0.00036797247 
 1203000   0.20077122 0.0029494693   -1.5354816   -1.2343398   -1.2183499 0.0073329221 0.0019897822 -0.00047429638 
 1204000   0.20033391 -0.0014913102   -1.5365234   -1.2360376   -1.2441224 0.00046384426 -0.0042230586 -0.00071471612 
 1205000   0.19916411 -0.0027920696   -1.5335983    -1.234867   -1.2500036 0.00097261685 -0.0011005803 -0.0082482453 
 1206000   0.20025363 -0.0039564004   -1.5362891   -1.2359237   -1.2573724 -0.0010743379 -0.0035596313 -0.007235232 
 1207000   0.20065774 -0.0030884654   -1.5392542   -1.2382827   -1.2550261 -0.003453987 -0.0017288736 -0.0040825356 
 1208000   0.19921703 0.0001096093   -1.5354704   -1.2366598   -1.2360656 0.0021997364 0.00011004669 -0.0019809552 
 1209000   0.20074717 -0.0025917054    -1.535428   -1.2343223   -1.2483726 0.0019461677 -0.0053422626 -0.0043790213 
 1210000   0.20059639 0.00099752178   -1.5361578   -1.2352783   -1.2298704 0.0045967938 -0.0017572371 0.00015300871 
 1211000   0.20183361 0.00041049662   -1.5381785   -1.2354432   -1.2332178 0.0025407244 -0.0029961394 0.0016869048 
 1212000    0.2008657 -0.0017926831   -1.5381066   -1.2368232   -1.2465418 -0.0018258918 -1.1740869e-05 -0.0035404166 
 1213000    0.1987351 8.9742839e-06   -1.5398159   -1.2417282   -1.2416795  0.003664044 -0.0032253785 -0.0004117427 
 1214000   0.20277872 0.00080695076   -1.5344879    -1.230335   -1.2259603  0.001942899 -0.0023756172 0.0028535705 
 1215000   0.20148707 -0.0022461914   -1.5337124   -1.2314969   -1.2436741 -0.0030737366 -0.00090997484 -0.0027548628 
 1216000   0.20010734 -0.0024663632   -1.5358725   -1.2357265   -1.2490973 0.0020456374 -0.0052363718 -0.0042083554 
 1217000   0.19903184 -0.0018925589   -1.5380155   -1.2394827   -1.2497428 -0.0014425523 -0.0026138237 -0.0016213006 
 1218000   0.19936383 -0.0033032425   -1.5409091   -1.2418783   -1.2597861 -0.002652468 -0.0035473989 -0.0037098605 
 1219000   0.20169865 -0.0026459653    -1.533592   -1.2310592   -1.2454037 0.00045533757 -0.0062142047 -0.0021790288 
 1220000   0.20047213 -0.0021155995    -1.529281   -1.2285879   -1.2400571 0.0021784093 -0.0028344388 -0.005690769 
 1221000   0.19827785 -0.0056042109   -1.5381704   -1.2407685   -1.2711505 -0.0051135164 -0.0081456514 -0.0035534649 
 1222000   0.19965754 0.00040303181   -1.5410479   -1.2415765   -1.2393916 0.0028194747 -8.5032427e-05 -0.0015253469 
 1223000   0.20046439 -0.0018422557   -1.5383039   -1.2376223   -1.2476097 0.00067376519 -0.0052664191 -0.00093411324 
 1224000   0.19913523 -0.0017575638   -1.5321635   -1.2334756   -1.2430039 -0.00030189349 -0.0035651935 -0.0014056042 
 1225000   0.20005566 -0.0011370536   -1.5349081   -1.2348397   -1.2410039 0.0033934007 -0.0016583532 -0.0051462084 
 1226000      0.20057 0.00017060181   -1.5351499     -1.23431   -1.2333851 0.0023494477 -0.00021805188 -0.0016195904 
 1227000   0.20102049 -0.0012010719   -1.5337234   -1.2322078   -1.2387191 -0.00097759509 -0.00026630761 -0.0023593129 
 1228000   0.20157136 -0.0031078244   -1.5345444   -1.2322025   -1.2490509 -0.0016815569 -0.0022898951 -0.0053520211 
 1229000   0.19796804 0.00050681617   -1.5289667   -1.2320295   -1.2292819 0.0046435942 -0.0034731183 0.00034997264 
 1230000   0.20080766 -0.0047050536   -1.5324039   -1.2312075   -1.2567149 0.00099587783 -0.0082295506 -0.0068814881 
 1231000   0.20002426 2.3448074e-05   -1.5303497   -1.2303283   -1.2302012 0.0036846582 0.00026154663 -0.0038758607 
 1232000   0.19876158 -0.0018194814   -1.5371147   -1.2389872   -1.2488512 -0.00029895225 -0.0017781808 -0.0033813113 
 1233000   0.20010596 -0.001329409   -1.5367584   -1.2366145   -1.2438216 0.00088513515 -0.0034366442 -0.0014367181 
 1234000   0.20183412 -2.7290409e-05   -1.5319262   -1.2291901   -1.2293381 0.0017465295 -0.0035652322 0.0017368315 
 1235000   0.19971937 -0.001272854   -1.5289077   -1.2293436   -1.2362441 -0.00010056865 -0.00053734224 -0.0031806511 
 1236000   0.20039627 -0.0027056219    -1.534023   -1.2334437   -1.2481116 -0.0014878877 -0.0024917243 -0.0041372538 
 1237000   0.20028215 -0.0028447374   -1.5384854   -1.2380772   -1.2534993 0.0017037795 -0.0049186661 -0.0053193255 
 1238000   0.19933375 0.0014682739   -1.5367998   -1.2378141   -1.2298542 0.0025060257 0.00043309118 0.0014657048 
 1239000   0.19955038 -0.00050850125   -1.5382477   -1.2389371   -1.2416939 0.0012222833 -0.0014169113 -0.0013308757 
 1240000   0.19825932 -0.0050191666   -1.5381957   -1.2408216   -1.2680319 -0.003728651 -0.0030265647 -0.0083022842 
 1241000   0.19940941 -8.9964175e-06   -1.5384461   -1.2393469   -1.2393957 0.00095370006 -0.0014861686 0.00050547928 
 1242000   0.19934279  0.001084006   -1.5367329   -1.2377337    -1.231857 0.0031388491 0.00067050173 -0.00055733292 
 1243000   0.19998909 -1.41185e-05   -1.5313932   -1.2314246   -1.2315011 0.0055437568 -0.0049428316 -0.00064328063 
 1244000   0.20068826 -0.003634678   -1.5223539   -1.2213366   -1.2410412 -0.00086713834 -0.0045924691 -0.0054444267 
 1245000   0.20172707 -0.00024411074   -1.5243256   -1.2217501   -1.2230735  0.003731921 0.0001461577 -0.0046104109 
 1246000   0.19918009 6.7274004e-05   -1.5296648   -1.2309096   -1.2305449 0.0028439436 -0.0012275842 -0.0014145374 
 1247000   0.19983127 -0.00012338012   -1.5345816   -1.2348497   -1.2355186 0.0013148803 -0.0019644073 0.00027938668 
 1248000   0.19846511 -0.0027024095   -1.5348461   -1.2371633   -1.2518138 0.0008484022 -0.0062777929 -0.0026778377 
 1249000   0.20020816 -0.0014051815   -1.5312721   -1.2309749   -1.2385928 0.0026508843 -0.0040109584 -0.0028554705 
 1250000   0.20019504 -0.0023967643   -1.5310037   -1.2307262   -1.2437197 0.0007383151 -0.0031743123 -0.0047542957 
 1251000   0.20154196 -0.0038732658   -1.5315775   -1.2292797   -1.2502777 -0.0017739656 -0.0040027279 -0.0058431039 
 1252000   0.19988743 -0.0041549052   -1.5350834   -1.2352673   -1.2577922 -0.0012786166 -0.0060485504 -0.0051375486 
 1253000   0.19920105  -0.00223127   -1.5335653   -1.2347787    -1.246875 0.0035608595 -0.0047782818 -0.0054763877 
 1254000   0.20041617 -0.0025600371    -1.533469   -1.2328598   -1.2467385 0.0040540338 -0.0087242312 -0.0030099141 
 1255000    0.2005091 -0.0010182907   -1.5329652   -1.2322165    -1.237737 0.00065353717 0.00055015887 -0.0042585681 
 1256000   0.19974406 -0.0002380769   -1.5314349   -1.2318338   -1.2331245 0.0049997396 -0.0033847174 -0.002329253 
 1257000   0.20006874 -0.00072990797   -1.5353541    -1.235266    -1.239223 0.0026712826 -0.0018895663 -0.0029714402 
 1258000   0.20027017 -0.001167059   -1.5382252    -1.237835   -1.2441619 0.00078852627 -0.00077487409 -0.0035148293 
 1259000   0.19989469 -0.0051826332   -1.5391662   -1.2393392   -1.2674357 -0.0032870892 -0.0039666072 -0.0082942031 
 1260000   0.19935863 0.0014165905   -1.5346032   -1.2355802   -1.2279005 0.0053793264 -0.0012307996 0.00010124484 
 1261000   0.19871841 -0.0038772209   -1.5349397    -1.236877   -1.2578965 -0.0015313271 -0.0060409217 -0.0040594138 
 1262000   0.19968693 -0.0013858804    -1.536614   -1.2370985   -1.2446118  0.003867821 -0.0070679661 -0.00095749592 
 1263000   0.20019967 0.0012329497   -1.5390149   -1.2387304   -1.2320462 0.0038796655 0.00067944615 -0.0008602626 
 1264000   0.19964437 0.0026969891   -1.5387432   -1.2392917   -1.2246705 0.0034153258 0.0021837646 0.0024918769 
 1265000   0.20032517 -0.00054288281    -1.537793   -1.2373202   -1.2402634 -0.0011108467 0.00031210929 -0.00082991105 
 1266000   0.20062104 -0.0035247377   -1.5327986   -1.2318821   -1.2509906 -0.0020338539 -0.0042859993 -0.0042543598 
 1267000   0.19878049 -0.0032644701   -1.5346595   -1.2365037   -1.2542013 0.0024490922 -0.0061351307 -0.0061073718 
 1268000   0.20046033 6.1934594e-05    -1.536796   -1.2361205   -1.2357847  0.002516099 -0.0021287791 -0.00020151616 
 1269000   0.19828697 -0.0011566132   -1.5322593   -1.2348437    -1.241114 0.0016533307 -0.0057082667 0.00058509626 
 1270000   0.20005536 -0.0033032636   -1.5314365   -1.2313684   -1.2492763 -0.0035591345 -0.0042371649 -0.0021134912 
 1271000   0.19919727 -0.0020039991   -1.5337982   -1.2350172   -1.2458815 -0.00033998071 -0.0037940302 -0.0018779864 
 1272000   0.20122239 0.0019040769   -1.5355839   -1.2337654   -1.2234428 0.0006671145 0.0016476734 0.0033974429 
 1273000   0.20013074 -0.004049312   -1.5356099   -1.2354288   -1.2573813 -0.0012621719 -0.0073870865 -0.0034986776 
 1274000   0.20064089 -0.0017698727   -1.5316672   -1.2307209   -1.2403159 -0.00041529214 -0.002656124 -0.0022382019 
 1275000   0.20008556 -0.00086253798   -1.5316655   -1.2315522   -1.2362282 0.0023565861 -0.0015643526 -0.0033798474 
 1276000   0.20067151 -0.0007180813   -1.5321111   -1.2311189   -1.2350118  0.001831121 -0.0032750823 -0.00071028261 
 1277000   0.19923601 -0.0023011894   -1.5353578   -1.2365188   -1.2489942 -3.9999077e-05 -0.0036729626 -0.0031906067 
 1278000   0.19788877 0.00015198518   -1.5350859   -1.2382675   -1.2374436 0.0025273007 -0.0014393681 -0.00063197704 
 1279000   0.19947769 0.00014247977   -1.5332387   -1.2340371   -1.2332647 0.0026033222 -0.002481535 0.00030565216 
 1280000    0.1984029 -0.0036324245   -1.5302358   -1.2326463   -1.2523387 -0.0023509571 -0.0038861901 -0.0046601262 
 1281000    0.1997808 -0.0048570509   -1.5340366   -1.2343804   -1.2607118 -0.00056115295 -0.0090036734 -0.0050063264 
 1282000   0.20013078 0.0011510453   -1.5345675   -1.2343864   -1.2281463 0.00096815162 -0.0025211302 0.0050061146 
 1283000   0.20171561 -0.0035282154   -1.5413208   -1.2387625     -1.25789 -0.0052895282 -0.003394324 -0.001900794 
 1284000   0.20138806 -0.0013039831    -1.530974    -1.228907   -1.2359762 -0.00019546429 -0.0040856946 0.00036920963 
 1285000   0.20204977 -0.0025869525   -1.5291635    -1.226104   -1.2401286 0.00046974873 -0.0024984001 -0.0057322062 
 1286000   0.19991212 0.0013078661   -1.5311462    -1.231293   -1.2242027 0.0035350099 0.0040557298 -0.0036671414 
 1287000   0.20104829 0.0019946757   -1.5386283    -1.237071   -1.2262573 0.0043147381  0.001414715 0.00025457399 
 1288000   0.20068676 -2.887936e-05   -1.5384208   -1.2374058   -1.2375623 0.0049052631 -0.0015024125 -0.0034894887 
 1289000   0.19947259 -0.002757568   -1.5332721   -1.2340782   -1.2490277 0.0017246824 -0.0047483103 -0.0052490762 
 1290000   0.19817584 -0.0033903032   -1.5304968   -1.2332479   -1.2516277 0.0016768109 -0.0056473419 -0.0062003784 
 1291000    0.2006294 -0.0046070155   -1.5336682   -1.2327392   -1.2577151 -0.0020883195 -0.0041871066 -0.0075456206 
 1292000   0.19975862 -0.0020186113   -1.5362065   -1.2365835    -1.247527 0.0045130132 -0.0061069446 -0.0044619025 
 1293000   0.20018602 -0.00091144167   -1.5350036   -1.2347396   -1.2396808 -0.0010824554 -0.0014090752 -0.00024279447 
 1294000   0.19877387 0.0013881699   -1.5300527   -1.2319068   -1.2243812 0.0024223554 -0.00013708786 0.0018792422 
 1295000   0.20096137 -0.0045085295   -1.5353028   -1.2338758   -1.2583178 -0.0017813655 -0.0059832283 -0.0057609947 
 1296000   0.19878969 -0.0021886029   -1.5353624   -1.2371928   -1.2490578 -0.00028167857 -0.0042681007 -0.0020160295 
 1297000   0.20187441 0.00054480303   -1.5304972   -1.2277007   -1.2247472  0.004324313 -0.0014762573 -0.0012136466 
 1298000   0.19912733 -0.0028008552   -1.5245091    -1.225833   -1.2410172 -0.0008833012 -0.007297285 -0.00022197943 
 1299000   0.20007247 0.00053348916   -1.5306291   -1.2305354   -1.2276432 0.0080543486 -0.0015541658 -0.0048997153 
 1300000   0.20179518 -0.00033086374   -1.5391446    -1.236467   -1.2382607 0.0023914216 -0.0046182366 0.0012342238 
 1301000   0.19999023 0.0027390421    -1.538403   -1.2384327   -1.2235836 0.0037295164 0.0023425764 0.0021450335 
 1302000   0.20022814 -0.0008668987   -1.5355464   -1.2352192   -1.2399189 0.0019580798 -0.0020417867 -0.0025169892 
 1303000    0.1998651 -0.0034540672   -1.5333455   -1.2335629   -1.2522883 0.00074060514 -0.0054379076 -0.005664899 
 1304000   0.20007394 -0.0038405233   -1.5293421   -1.2292462   -1.2500667 -0.0050352192 -0.0038366363 -0.0026497145 
 1305000   0.20020555 -0.0010788674   -1.5376219   -1.2373286   -1.2431774 0.0026860752 -0.00036713663 -0.0055555407 
 1306000   0.19926066 1.0593568e-06   -1.5380398   -1.2391637    -1.239158 0.00069111725 0.0022162382 -0.0029041774 
 1307000   0.19950642 -0.0023938541   -1.5315107   -1.2322661   -1.2452438   0.00312368 -0.0054664624 -0.0048387798 
 1308000   0.20259276 0.00058246516    -1.525674      -1.2218   -1.2186423  0.002411584 -0.0011905805 0.00052639205 
 1309000   0.20065453 -0.0038231609   -1.5289662   -1.2279994   -1.2487258 -0.0042519649 -0.0010312603 -0.0061862574 
 1310000    0.1984384  -0.00343558    -1.532146   -1.2345033   -1.2531286 -0.00038848322 -0.0029398842 -0.0069783725 
 1311000   0.19891056 -0.00025361688   -1.5347247   -1.2363738   -1.2377488 0.0036637968 -0.0021294029 -0.0022952445 
 1312000   0.19905097 -0.0034515749   -1.5361866    -1.237625    -1.256337 4.0047834e-05 -0.0052225079 -0.0051722647 
 1313000   0.19926787 -0.0026491081    -1.535606   -1.2367191   -1.2510807 0.0014776616 -0.0037256208 -0.0056993651 
 1314000   0.20095653 -0.0018541125   -1.5331388   -1.2317191   -1.2417707 0.00012539007 -0.0026616122 -0.0030261153 
 1315000   0.20146748 -0.0020898994   -1.5329744   -1.2307882   -1.2421182 0.00092812561 -0.0041252866 -0.0030725372 
 1316000   0.20234405 0.0027488609   -1.5328265   -1.2293256   -1.2144232  0.006056185 0.00018031182 0.0020100859 
 1317000   0.20088325 -3.2466774e-05   -1.5312156   -1.2299058   -1.2300818 0.0041615704 -0.0038093109 -0.00044965976 
 1318000   0.19977271 0.0021164571   -1.5318986   -1.2322545   -1.2207806 0.0042651276 -0.0005931847 0.0026774285 
 1319000   0.19927372 -0.0053212976   -1.5321285   -1.2332329   -1.2620811 -0.0050741813 -0.0081156262 -0.0027740851 
 1320000   0.19951534 -0.0025484336   -1.5301182   -1.2308602    -1.244676 -0.00057462725 -0.0044989011 -0.0025717725 
 1321000   0.19972344 -0.0022133868   -1.5343559   -1.2347857   -1.2467851 -0.00012810133 -0.0045696001 -0.0019424591 
 1322000   0.20104825 -0.0026848312   -1.5333332   -1.2317759   -1.2463311 0.0024183937 -0.005927564 -0.0045453233 
 1323000   0.20118692 -0.0031230725    -1.528022   -1.2262567   -1.2431877 0.00097573685 -0.0024003054 -0.007944649 
 1324000   0.19822214 -0.0019754507   -1.5297156   -1.2323973   -1.2431068 -4.2844623e-05 -0.0032964613 -0.0025870461 
 1325000   0.19910675 0.0012162436   -1.5302168   -1.2315716    -1.224978  0.001429114 0.0011040036 0.0011156133 
 1326000   0.20144331 -0.00017756825   -1.5327645   -1.2306146   -1.2315772 0.00096150443 -0.0018149311 0.00032072193 
 1327000   0.20096103 -0.0019116914   -1.5332534   -1.2318269   -1.2421907  0.001960183 -0.004649039 -0.0030462184 
 1328000   0.19874569 0.0004197095   -1.5302154   -1.2321118   -1.2298364 0.0040252152 0.00098737431 -0.003753461 
 1329000   0.19803297 -0.0019588117   -1.5294944   -1.2324598   -1.2430791 -0.0026937644 -0.00074378177 -0.0024388889 
 1330000   0.19886766 -0.0018982618   -1.5325808   -1.2342943   -1.2445853 0.0006078474 -0.0026245851 -0.0036780476 
 1331000   0.20150646 -0.00092655166   -1.5281716    -1.225927   -1.2309501 0.0022993174 -0.0037141452 -0.0013648272 
 1332000    0.2019043 -0.0015907702   -1.5278875   -1.2250462   -1.2336702 0.0014717355 -0.0060148184 -0.00022922763 
 1333000   0.20266257 0.00013031698   -1.5269526    -1.222974   -1.2222675 0.0031070112 -0.00035706488 -0.0023589954 
 1334000   0.20001063 -0.00098736095   -1.5252765   -1.2252756   -1.2306283 0.0019640473 -0.0036817374 -0.0012443927 
 1335000   0.19931513 -0.0035185042   -1.5262338    -1.227276   -1.2463508 -0.00097779228 -0.0054437498 -0.0041339706 
 1336000   0.20068048 -0.0027946422   -1.5324209   -1.2314152   -1.2465658 0.0011814602 -0.0029944734 -0.0065709132 
 1337000   0.20184666 -0.0019542095     -1.53476   -1.2320051   -1.2425994 -0.0024879315 -0.0017279344 -0.0016467625 
 1338000   0.19965485 -0.00076762469   -1.5360856   -1.2366183   -1.2407798 0.0028792332 -0.0047527004 -0.00042940687 
 1339000   0.19844228 -0.0038682914   -1.5322595   -1.2346109    -1.255582 -0.0019200642 -0.0037539578 -0.0059308522 
 1340000   0.19780728 -0.001514218   -1.5288291   -1.2321331   -1.2403421 -0.00039507871 -0.0038431262 -0.00030444911 
 1341000   0.19955952 -0.0017501941   -1.5309641   -1.2316398   -1.2411281 0.00064488977 -0.0024863277 -0.0034091445 
 1342000   0.19889604 -0.001367874   -1.5334508   -1.2351216   -1.2425373 0.00058844995 -0.001593967 -0.003098105 
 1343000   0.19861339 -0.0030705615    -1.534843   -1.2369378   -1.2535842 -0.0025765439 -0.0017818457 -0.0048532949 
 1344000    0.1985505 -0.00037967131   -1.5332143   -1.2354035   -1.2374618 0.0053654593 -0.0017330008 -0.0047714724 
 1345000   0.20043389 -0.00088720999   -1.5329615   -1.2323257   -1.2371355 0.0011346325 -0.0024349049 -0.0013613575 
 1346000   0.19968277 -0.0040049802    -1.533331   -1.2338218   -1.2555339 0.0017410781 -0.0050876894 -0.0086683293 
 1347000   0.20013845 -0.0017227728   -1.5293254   -1.2291327   -1.2384723 -0.00074679995 -0.0029457571 -0.0014757612 
 1348000   0.20020133 -0.0056918487    -1.529598   -1.2293111   -1.2601682 -0.0012642375 -0.0077398185  -0.00807149 
 1349000   0.20005642 0.00011770155   -1.5302996     -1.23023   -1.2295919 0.0018312835 -0.0029423617 0.0014641828 
 1350000   0.19886181 0.0012058669   -1.5316412   -1.2333634    -1.226826 0.0029248878 0.0011481276 -0.00045541479 
 1351000   0.20037977 -0.0019329567   -1.5308665   -1.2303119    -1.240791 0.0015471115 -0.0039900544 -0.0033559272 
 1352000   0.19996478 -0.0027250745   -1.5291234   -1.2291912   -1.2439646 -0.00062020725 -0.0017360776 -0.0058189388 
 1353000   0.20251827 0.0016858692   -1.5342296   -1.2304673   -1.2213278 0.0067233527 -0.0013524786 -0.00031326637 
 1354000   0.20122225 -0.0014408703   -1.5320212   -1.2302029   -1.2380143 0.00087410413 -0.0044710931 -0.00072562191 
 1355000   0.20069951 -0.0022543835   -1.5309471   -1.2299129   -1.2421345 3.7181714e-05 -0.0053249901 -0.0014753421 
 1356000   0.19882678 -0.0023399939   -1.5295221   -1.2312968   -1.2439826 -0.00060822738 -0.0036073694 -0.002804385 
 1357000   0.20144411 -0.0017950076   -1.5282059   -1.2260549   -1.2357861 0.00080119655 -0.0032405152 -0.0029457041 
 1358000   0.20161879 0.00029447799   -1.5227463   -1.2203333   -1.2187368 0.0013503948 0.0013019871 -0.001768948 
 1359000    0.2012666 -0.0015513257   -1.5293728   -1.2274879   -1.2358981 0.0014987098 -0.0039951885 -0.0021574985 
 1360000   0.19928674 -0.0003389676   -1.5294985   -1.2305833   -1.2324209 0.0026621346 -0.00046638137 -0.003212656 
 1361000   0.19870913 8.9823772e-05   -1.5287888     -1.23074   -1.2302531 0.00097142128 -0.0016133302 0.00091138019 
 1362000   0.19969573 -0.0031122429   -1.5321542   -1.2326255   -1.2494979 -0.0022101989 -0.0033877411 -0.0037387887 
 1363000   0.19985506 -0.0025958529     -1.53389   -1.2341224   -1.2481953 9.205186e-05 -0.0063980523 -0.0014815581 
 1364000   0.20027039 -0.00058341288    -1.531199   -1.2308084   -1.2339713 0.0016346663 -0.0010275049   -0.0023574 
 1365000    0.1986024 -0.004438465   -1.5357721   -1.2378834   -1.2619455 0.00062859396 -0.0063592336 -0.0075847553 
 1366000   0.19843731 -0.001622983   -1.5348301    -1.237189   -1.2459877 0.00013637597 -0.0025243559 -0.002480969 
 1367000   0.19995308 -0.0023936686   -1.5363273   -1.2364127   -1.2493895 -0.0013395646 -0.0041111605 -0.0017302807 
 1368000    0.2003607 -0.004332549   -1.5323505   -1.2318244   -1.2553124 -0.003584428 -0.0038169833 -0.0055962356 
 1369000   0.19847667 -0.006125506   -1.5324187   -1.2347186   -1.2679267 -0.0013652787 -0.0092134306 -0.0077978088 
 1370000   0.19875766 -0.0018201175   -1.5330336    -1.234912   -1.2447794 -0.00022574437 -0.0030812209 -0.0021533872 
 1371000    0.2013961 -0.0033745619   -1.5360299   -1.2339509   -1.2522453 -0.0018748677  -0.00320605 -0.0050427679 
 1372000   0.19965251 -0.0005971045   -1.5325839   -1.2331201   -1.2363571 -0.00066263535 -0.00070115632 -0.00042752182 
 1373000   0.20080999 -0.00049879742   -1.5300952   -1.2288952   -1.2315994 0.0014293768 0.0010819548 -0.0040077239 
 1374000   0.20039493 -0.0034105552   -1.5300451   -1.2294678   -1.2479573 -0.0011626457 -0.0047280716 -0.0043409485 
 1375000    0.1994347 -0.0023606676   -1.5326633   -1.2335262    -1.246324 0.0014723733 -0.0022110435 -0.0063433325 
 1376000   0.19945935 -0.0015040552   -1.5348964   -1.2357223   -1.2438762 0.0014647416 -0.0024849734 -0.0034919338 
 1377000    0.2020362 -0.00025629054   -1.5351023   -1.2320632   -1.2334526 0.0028839432 -0.0016214011 -0.0020314137 
 1378000   0.20140237 -0.0022686003   -1.5343406   -1.2322521   -1.2445509 -0.0014885558 -0.0018766347 -0.0034406102 
 1379000   0.20128944 0.0017058461   -1.5330891     -1.23117   -1.2219221 0.0043196055 0.00091573199 -0.00011779923 
 1380000   0.19915425 0.0021721068   -1.5287647   -1.2300482   -1.2182726 0.0048123525 0.0016032293 0.00010073881 
 1381000   0.20070143 -0.0049427947   -1.5328423   -1.2318052   -1.2586015 -0.0021481584 -0.0093962579 -0.0032839677 
 1382000   0.20142672 0.0011448752   -1.5270413   -1.2249164   -1.2187097 0.0025609833 -0.0020019655 0.0028756077 
 1383000   0.19938819 -0.0013022685   -1.5331823    -1.234115    -1.241175 0.0011499792 -0.0023132436 -0.0027435413 
 1384000   0.19706372 -4.6187922e-05   -1.5305652   -1.2349844   -1.2352348 0.0035329871 -0.0012466413 -0.0024249096 
 1385000   0.19872773 -0.0020583499   -1.5304106   -1.2323339   -1.2434928 0.0016644082 -0.0011058512 -0.0067336067 
 1386000   0.20204022 -0.0013526337    -1.534497   -1.2314518   -1.2387848 -0.0014785071 0.0008536771 -0.0034330711 
 1387000   0.20065004 -0.0001411478   -1.5386314   -1.2376714   -1.2384366 -0.00023971085 0.0018050683 -0.0019888009 
 1388000   0.19984564 -0.0017346714   -1.5351411   -1.2353877   -1.2447918 0.0026579077 -0.0047937059 -0.0030682158 
 1389000   0.19837532 -0.0043526939   -1.5316936   -1.2341455   -1.2577427 -0.0056547197 -0.0043364716 -0.0030668906 
 1390000   0.19929408 -0.0057862322   -1.5339533   -1.2350271   -1.2663959 -0.0048678651 -0.0071809585 -0.0053098731 
 1391000   0.19776846 -0.0028150689   -1.5381984   -1.2415605   -1.2568218 -0.00047357848 -0.0013054287 -0.0066661995 
 1392000   0.19879342 -0.0025232813   -1.5376071   -1.2394319   -1.2531113 0.0025629386 -0.0058747967 -0.0042579859 
 1393000   0.19946577 -0.001816925   -1.5310751   -1.2318914   -1.2417414 0.0041601517 -0.0048120841 -0.0047988426 
 1394000   0.19860331 -0.0057396631   -1.5296179   -1.2317278   -1.2628441 -0.001975458 -0.006171215 -0.0090723163 
 1395000   0.20012743 -0.0021763307   -1.5323683   -1.2321921   -1.2439906 0.00060073875 0.00025555491 -0.0073852857 
 1396000    0.1995082 0.00056279201   -1.5370938   -1.2378465   -1.2347954  0.003083289 -0.0029487891 0.0015538761 
 1397000    0.1982855 -0.0026985592   -1.5409741   -1.2435607   -1.2581904 -0.0014534221 0.0012388543 -0.0078811099 
 1398000   0.19820452 -0.003420137   -1.5384878   -1.2411958   -1.2597374 -0.00016946227 -0.0043103597 -0.0057805889 
 1399000   0.20001506 -0.0018482742   -1.5315348   -1.2315272   -1.2415472 0.0015155462 -0.001097884 -0.0059624847 
 1400000   0.20065134 -0.0018292978   -1.5325354   -1.2315735   -1.2414906 0.0013897376 -0.0043028687 -0.0025747622 
 1401000   0.20286755 0.00036419608   -1.5316646   -1.2273785   -1.2254041 0.0047037982 -0.002285331 -0.001325879 
 1402000   0.20198529 -0.0031747814   -1.5333088    -1.230346   -1.2475574 0.0032911465 -0.0070070055 -0.0058084852 
 1403000   0.20062946 -0.00092109584   -1.5302824   -1.2293533   -1.2343468 0.0027424563 -0.0038633242 -0.0016424197 
 1404000   0.19919368 -0.0025103726   -1.5321577   -1.2333821   -1.2469915 -0.00037364066 -0.0048107991 -0.002346678 
 1405000   0.19998547 -0.00017053392   -1.5368279   -1.2368647   -1.2377892 0.0027320475 -0.0022331587 -0.0010104906 
 1406000    0.1993182 -0.0046833867   -1.5416664    -1.242704    -1.268094 8.5149233e-06 -0.0078971635 -0.0061615115 
 1407000   0.20103241 -0.0011087639   -1.5398147   -1.2382812   -1.2442921 0.00081516361 -0.0023854613 -0.001755994 
 1408000   0.20020567 -0.0016581717   -1.5362502   -1.2359567   -1.2449461 0.0027532246 -0.0018994513 -0.0058282883 
 1409000   0.19798814 -0.0045388838   -1.5318873     -1.23492   -1.2595265 -0.00067927939 -0.0030328924 -0.0099044797 
 1410000   0.19826064 -0.0034732318   -1.5335393   -1.2361632   -1.2549925 -0.0032113313 -0.0033348505 -0.0038735136 
 1411000   0.19964788 0.0019350978   -1.5416886   -1.2422318   -1.2317411 0.0054563483   -0.0012467 0.0015956451 
 1412000   0.20123854 -0.00035784803   -1.5430596   -1.2412169   -1.2431569 0.0028964317 -0.00088749018 -0.0030824856 
 1413000   0.20262656 -0.0016988055   -1.5321141   -1.2281894   -1.2373991 -0.00087331514 -0.0037247905 -0.00049831085 
 1414000   0.20053175 -0.0041038751   -1.5270777   -1.2262951   -1.2485434 0.0013810867 -0.0053888173 -0.0083038947 
 1415000    0.2015094 -0.0030957776   -1.5334718   -1.2312229   -1.2480059 0.0019433554 -0.0066411293 -0.0045895589 
 1416000   0.20057459 0.0011699072   -1.5293763   -1.2285295   -1.2221871 0.0042007843 -0.001261419 0.00057035641 
 1417000    0.1985983 -0.0037100692   -1.5359427   -1.2380601   -1.2581735 0.00067955862 -0.0038368093 -0.0079729569 
 1418000     0.198476 -0.0011517144   -1.5324847   -1.2347855   -1.2410293 -0.0018303655 0.00033931437 -0.0019640919 
 1419000   0.19757935 0.0016006628   -1.5284438   -1.2320896    -1.223412 0.0063693724 -0.0030230591 0.0014556752 
 1420000   0.20099166 -0.00058965775   -1.5298154    -1.228343   -1.2315397 0.0003725802 0.00070473129 -0.0028462847 
 1421000   0.20209224 -0.00022434258   -1.5340572    -1.230934   -1.2321503 0.0036457511 -0.00086318382 -0.003455595 
 1422000   0.20060323 -0.00051859089   -1.5326156   -1.2317258   -1.2345373 0.0017427983 -0.001460502 -0.0018380689 
 1423000   0.20044885 0.00030879996   -1.5307971   -1.2301389   -1.2284648 0.0032108811 -6.8364116e-05 -0.0022161171 
 1424000   0.19960184 -0.0011554759   -1.5310573   -1.2316695   -1.2379337 0.0042379279 -0.0039484774 -0.0037558782 
 1425000   0.20087894 4.0375756e-05    -1.535578   -1.2342747   -1.2340558 0.0035471006 -0.00073709096 -0.0026888823 
 1426000   0.19991049 -0.0021691417   -1.5366627   -1.2368119   -1.2485714 0.0010334685 -0.0061056126 -0.001435281 
 1427000   0.20000749 -0.0057407704   -1.5362019   -1.2362057    -1.267328 -0.0019475459 -0.0062128631 -0.0090619022 
 1428000   0.19805291 -0.00029936983   -1.5334066   -1.2363421   -1.2379651 -0.00019964802 -9.9551439e-05 -0.00059891004 
 1429000   0.19797334 -0.0047160905   -1.5361105   -1.2391654   -1.2647326 -0.001380705 -0.0082865041 -0.0044810624 
 1430000   0.19834869 -0.0011719472   -1.5345781   -1.2370699   -1.2434234 0.0021952419 -0.003348469 -0.0023626144 
 1431000   0.20012413 0.00027922947    -1.534021   -1.2338498    -1.232336 0.0033219071 -0.00072855262 -0.0017556661 
 1432000   0.20005394 0.00015305917    -1.530846   -1.2307801   -1.2299504     0.006928 -0.0044699518 -0.0019988706 
 1433000   0.19900321 -0.0010468318   -1.5309273   -1.2324374   -1.2381126 0.0037658129 -0.0010155667 -0.0058907415 
 1434000    0.1979817 -0.0022341182   -1.5300551   -1.2330974   -1.2452092 -0.0014112377 -0.0038830947 -0.0014080222 
 1435000   0.19832034 -0.0015926505    -1.529686   -1.2322204   -1.2408546 0.0027332098 -0.0053923413 -0.0021188198 
 1436000   0.20090259 -0.0026958427   -1.5391807   -1.2378419   -1.2524568 0.00043061892 -0.0034419354 -0.0050762116 
 1437000   0.19794426 -0.0021489053   -1.5350432   -1.2381417   -1.2497915 0.0011145113 -0.0033266189 -0.0042346082 
 1438000   0.19828252 -0.0030041427   -1.5355325   -1.2381235   -1.2544098 0.0025930891 -0.0070732782 -0.0045322389 
 1439000   0.19851216 -0.00070086703   -1.5319404    -1.234187   -1.2379866 0.0042280654 -0.001118321 -0.0052123455 
 1440000   0.20009795 0.00078904012   -1.5300316   -1.2298997   -1.2256221 0.0043327178 -0.0023838829 0.00041828545 
 1441000   0.20059671 -0.0016664547   -1.5320678   -1.2311877   -1.2402221 -0.00054513204 -0.0030837111 -0.001370521 
 1442000   0.19941248 -0.0027781976    -1.532782   -1.2336782   -1.2487396 -0.00071829168 -0.0068902993 -0.00072600184 
 1443000    0.1995385 -0.0036609033   -1.5342724   -1.2349796   -1.2548264 0.00057576745 -0.006371905 -0.0051865725 
 1444000   0.20044869 1.2605391e-05   -1.5365606   -1.2359026   -1.2358343 0.0024602281 -0.00092495686 -0.0014974551 
 1445000   0.20093786 -0.0024526382   -1.5349943   -1.2336026    -1.246899 -0.00014984826 -0.0046007985 -0.0026072677 
 1446000   0.19945357 -0.003364637   -1.5345982   -1.2354328   -1.2536734 -0.002636762 -0.0036549378 -0.0038022113 
 1447000   0.20023981 -0.0019413123   -1.5331332   -1.2327885   -1.2433129  0.002707609 -0.0029223223 -0.0056092237 
 1448000   0.19926372 -0.0015712559    -1.536266   -1.2373854   -1.2459036 0.00085581217 -0.0019681324 -0.0036014475 
 1449000   0.19812525 -0.0056802204   -1.5356339   -1.2384609   -1.2692549 -0.0032995463 -0.0069254785 -0.0068156364 
 1450000    0.1990549 -0.0021416678   -1.5329341   -1.2343667   -1.2459773 -0.0034412377 -0.00016696139 -0.0028168043 
 1451000   0.19954153 -0.0022340014   -1.5344773   -1.2351799   -1.2472911 -0.00075003233 -0.0039938197 -0.0019581522 
 1452000   0.20009838 -0.00077220363   -1.5297806   -1.2296481   -1.2338344  0.002803207 -0.0049455112 -0.00017430668 
 1453000   0.20115233 0.00095397429   -1.5280262   -1.2263128   -1.2211411 0.0044557716 0.00041401303 -0.0020078617 
 1454000   0.19665678 -0.0041555002   -1.5317774    -1.236807   -1.2593352 0.0029622895 -0.0092893739 -0.0061394162 
 1455000   0.19828692 0.00067359747   -1.5350242   -1.2376087    -1.233957 0.0029818877 -0.0034206276 0.0024595323 
 1456000   0.19841074 -0.00053580604   -1.5398815   -1.2422803   -1.2451851 -0.00017419135 -0.002251472 0.0008182452 
 1457000   0.19998584 -0.0011519765   -1.5366581   -1.2366943   -1.2429395 0.0023484952 0.0010123143 -0.006816739 
 1458000   0.19990809 -0.0013968553   -1.5318631    -1.232016   -1.2395887 0.0035410738 -0.0034826199 -0.0042490199 
 1459000   0.19929547 -0.0029141805   -1.5305686   -1.2316404    -1.247439 -0.0038637872 -0.0044705347 -0.00040821972 
 1460000   0.19977963 -0.00043653862   -1.5310818   -1.2314274    -1.233794 0.0010584304 -0.0030493423 0.00068129601 
 1461000   0.19736832 -0.0010066826   -1.5358615   -1.2398238   -1.2452813 0.0030138849 -0.003629631 -0.0024043017 
 1462000   0.19879977 -0.00058101598   -1.5333465   -1.2351618   -1.2383116 0.0017556924 -0.00029428411 -0.0032044562 
 1463000   0.20064222 -0.0054938554    -1.533917   -1.2329687   -1.2627525 -0.0061731674 -0.0056426551 -0.0046657438 
 1464000   0.19913708 -0.0019944473   -1.5352588   -1.2365681   -1.2473806 -0.00084965378 -0.004305749 -0.00082793903 
 1465000   0.20095909 -0.0020571967   -1.5323846    -1.230961   -1.2421136 1.0623943e-05 -0.0037061965 -0.0024760176 
 1466000    0.1984725 -0.0039605438   -1.5355304   -1.2378366   -1.2593078 -0.00043445086 -0.007595188 -0.0038519925 
 1467000   0.19928088 -0.0037633024   -1.5367813   -1.2378749   -1.2582769 -0.00079460343 -0.0067541414 -0.0037411622 
 1468000   0.19874193 0.00024913783   -1.5367596   -1.2386616   -1.2373109 0.0020780097 -0.00053479784 -0.00079579835 
 1469000   0.20165772 -0.0031310272   -1.5353498   -1.2328784   -1.2498525 -0.0010572141 -0.0048441006 -0.003491767 
 1470000    0.2002112 -0.00060649726   -1.5333172   -1.2330155   -1.2363035 0.0012215009 -0.0042583764 0.0012173838 
 1471000   0.20098124 -0.00029602442   -1.5314072   -1.2299504   -1.2315552 -6.8640233e-05  0.002561993 -0.003381426 
 1472000   0.20061009 -0.00025904498   -1.5322428   -1.2313427    -1.232747 0.0035561823 -0.0024460555 -0.0018872618 
 1473000   0.19937358 -0.0021826895   -1.5328906   -1.2338452   -1.2456782 -0.00029674607 -0.0039693926 -0.0022819297 
 1474000   0.19995003 -0.0022436109   -1.5336662   -1.2337562   -1.2459194 -0.002282402 -0.003274564 -0.0011738665 
 1475000   0.20024788 -0.0055965965   -1.5366843   -1.2363275   -1.2666682 -0.0016455719 -0.0062524872 -0.0088917304 
 1476000   0.19856221 -0.001748553   -1.5321934    -1.234365   -1.2438444 0.00092622192 -0.003332143 -0.0028397379 
 1477000   0.19880762 -0.0012941917   -1.5349825    -1.236786   -1.2438022 -0.0011857621 -9.7968888e-05 -0.0025988442 
 1478000   0.19848235 -0.0026459982   -1.5402324   -1.2425238   -1.2568685 0.0019227083 -0.0043656878 -0.0054950152 
 1479000   0.19989816 -0.0018295303   -1.5384074   -1.2385751   -1.2484935 -0.00045177062 -0.0027134496 -0.0023233707 
 1480000   0.20096302 -0.0032507637    -1.533107   -1.2316775   -1.2493008 -0.0018296151 -0.0015581298 -0.0063645462 
 1481000   0.19967653 0.00082271175   -1.5291828   -1.2296829   -1.2252228 0.0029828972 8.6004065e-05 -0.00060076596 
 1482000   0.19904246 -0.0016806959   -1.5331731   -1.2346244   -1.2437359 -0.00083452093 -0.0019514166 -0.0022561502 
 1483000   0.20008768 -0.00039713926   -1.5352205    -1.235104    -1.237257 0.00092563515 -0.00074425674 -0.0013727962 
 1484000    0.2003469 -0.0015039043   -1.5280743    -1.227569   -1.2357221 0.00098690056 -0.0043907454 -0.0011078682 
 1485000   0.20088732 -0.002773922   -1.5290661   -1.2277502   -1.2427884 -0.0010957822 -0.0061166809 -0.001109303 
 1486000   0.20151092 -0.002069005   -1.5334251   -1.2311738   -1.2423905 -0.002175029 -0.0011458359  -0.00288615 
 1487000    0.2007328 0.0019060367   -1.5392641   -1.2381799   -1.2278468 0.0057545075 -0.002582128 0.0025457307 
 1488000   0.20104134 -0.00075899239   -1.5389051   -1.2373582   -1.2414729 0.00074542061 -0.0039454748 0.00092307705 
 1489000   0.19885237 -0.002250652   -1.5333775   -1.2351138   -1.2473152 2.0601979e-06 -0.0033600189 -0.0033939974 
 1490000   0.20003308 -0.0026986676   -1.5318957   -1.2318611   -1.2464913 -0.0016158825 -0.0033659243 -0.003114196 
 1491000   0.20085938 0.0017927508   -1.5369592   -1.2356852   -1.2259662 0.0047532253 0.0016960646 -0.0010710376 
 1492000   0.19906183 0.00040737747   -1.5372639   -1.2386861   -1.2364776 0.0016711065 0.00070819285 -0.0011571669 
 1493000   0.20024809 -0.0014063768   -1.5328658   -1.2325087   -1.2401331 0.00046789749 -0.0042700623 -0.00041696543 
 1494000     0.201255 -0.0011337247    -1.533326   -1.2314586   -1.2376048 -1.6914929e-05 -0.0015747056 -0.0018095537 
 1495000   0.19760168 0.0014004108   -1.5376884   -1.2413007   -1.2337087 0.0025323691 0.00097387557 0.00069498773 
 1496000    0.2005297 -0.0013339231   -1.5332119   -1.2324323   -1.2396639 -0.0012026763 -0.0012220495 -0.0015770434 
 1497000   0.20043885 -0.0050970105   -1.5312387   -1.2305954   -1.2582277 -0.0020923226 -0.008625837 -0.004572872 
 1498000   0.19920606 0.00076208221    -1.530167   -1.2313728   -1.2272413 0.0052407689 -7.4729597e-05 -0.0028797927 
 1499000   0.20143616 -0.00033894528   -1.5340024   -1.2318632   -1.2337007 0.00086527835 -0.0010960865 -0.00078602768 
 1500000   0.20101299 -0.003015493   -1.5334112   -1.2319068   -1.2482546 -0.001669218 -0.0048929419 -0.002484319 
 1501000   0.19957066 -0.0011814953   -1.5313834   -1.2320424   -1.2384476  0.003189882 -0.0082415979 0.0015072299 
 1502000   0.20094156 -0.0032161243   -1.5328289   -1.2314316   -1.2488672 -0.0028206706 -0.002610384 -0.0042173183 
 1503000   0.19908365 -0.0038918548   -1.5306184   -1.2320078   -1.2531066 -0.00094802163 -0.0049731998 -0.005754343 
 1504000   0.19733714 -0.00058760446   -1.5293017   -1.2333108   -1.2364963 -0.00043224753 -0.0037584251 0.0024278593 
 1505000   0.19936081 -0.0045827024   -1.5331286   -1.2341023   -1.2589464 -0.0024290082 -0.0051571297 -0.0061619693 
 1506000   0.19860891 -0.0019530361   -1.5347402   -1.2368417   -1.2474297 0.0039551019 -0.004814809 -0.0049994013 
 1507000   0.19895608 -0.0029493264   -1.5304268   -1.2320076   -1.2479967 0.00087526791 -0.0040867044 -0.0056365428 
 1508000   0.20026675 -0.00031312474   -1.5306038   -1.2302187   -1.2319162 0.0036574921 -0.0027633018 -0.0018335645 
 1509000   0.20037239 0.00044518349   -1.5332635   -1.2327199   -1.2303064 0.0035233855 -0.001330797 -0.00085703798 
 1510000   0.19944161 -0.0026304506    -1.531354   -1.2322065   -1.2464669 0.0009569049 -0.0056673171 -0.0031809395 
 1511000   0.20018191 -0.0018762129   -1.5317008    -1.231443   -1.2416145 -0.00048102049 -0.00071088584 -0.0044367325 
 1512000   0.20114791 -0.0030012566   -1.5332666   -1.2315598   -1.2478304 0.0036893178 -0.0059808744 -0.0067122131 
 1513000   0.20053242 -0.0025477892   -1.5329627   -1.2321791   -1.2459914 -8.7911605e-05 -0.0022104159  -0.00534504 
 1514000   0.20164144 0.0039860628   -1.5314749   -1.2290279   -1.2074183 0.0057270469 0.0051822661 0.0010488754 
 1515000   0.20036479 -0.0012632219   -1.5328219   -1.2322897    -1.239138 0.0041263198 -0.0040782934 -0.0038376922 
 1516000   0.19948993 -0.0048997452   -1.5291163   -1.2298963   -1.2564592 -0.0004820056 -0.0078340566 -0.0063831735 
 1517000    0.1984639 -0.0023992385   -1.5286986   -1.2310176   -1.2440245 0.0035591553 -0.0041447773 -0.0066120934 
 1518000   0.20126863 -0.0037759493   -1.5308193   -1.2289314   -1.2494019 -0.001201069 -0.0045619664 -0.0055648124 
 1519000   0.20073227 -0.00098493742   -1.5351403   -1.2340569   -1.2393965 -0.0014170374 -0.00080815936 -0.00072961553 
 1520000   0.20016242 -0.00056348543   -1.5330561   -1.2328275   -1.2358823 -0.00073314898  0.001353319 -0.0023106263 
 1521000   0.20077924 -0.0047959418   -1.5277448    -1.226591   -1.2525911 -0.0013601052 -0.0064123146 -0.0066154057 
 1522000   0.20026982 -0.0037487159   -1.5306503   -1.2302606   -1.2505834 0.0015281995 -0.0085104206 -0.0042639265 
 1523000   0.19900857 -0.0031585351    -1.538214   -1.2397161   -1.2568394 0.00092867073 -0.0049171517 -0.0054871242 
 1524000   0.19824873 0.0012351295   -1.5375251   -1.2401669   -1.2334709 0.0044784715 -0.00041420511 -0.00035887773 
 1525000   0.19884653 -0.0011682774   -1.5299378   -1.2316829   -1.2380164 0.0028647909 -0.0028983721 -0.0034712509 
 1526000   0.19931863 -0.0033643005   -1.5247546   -1.2257916   -1.2440304 0.0017046286 -0.0068851117 -0.0049124183 
 1527000   0.19893505 -0.0029332818   -1.5251871   -1.2267995   -1.2427016 0.00034163166 -0.0050809596 -0.0040605175 
 1528000   0.19976298 -0.0022686304   -1.5347485    -1.235119   -1.2474179 -0.00028584082 -0.0025035036 -0.0040165467 
 1529000   0.19867035 0.0030741182   -1.5337192   -1.2357286   -1.2190629 0.0022006694  0.004675902 0.0023457832 
 1530000   0.20096486 -0.0029991899   -1.5337867   -1.2323545   -1.2486139 8.4869634e-05 -0.0060001193 -0.0030823199 
 1531000   0.20196359 -0.0030248603   -1.5326348   -1.2297045   -1.2461031 -0.0014826418 -0.0056292411 -0.001962698 
 1532000   0.19962472 -0.0023645852   -1.5371672   -1.2377451   -1.2505642 0.0021248724 -0.0030054177 -0.0062132102 
 1533000   0.19937199 -0.0011641529   -1.5378866   -1.2388436   -1.2451548 -0.001705012 0.00078128621 -0.0025687328 
 1534000   0.19916705 -0.0030031862   -1.5326253   -1.2338897   -1.2501708 -0.0021712869  -0.00393872 -0.0028995517 
 1535000   0.19821935 -0.003267874   -1.5304708   -1.2331567   -1.2508727 0.0011679757 -0.0044536946 -0.006517903 
 1536000   0.19879519 -0.0060136063   -1.5305359    -1.232358   -1.2649594 -0.0027379836 -0.0081479374 -0.007154898 
 1537000     0.199438  -0.00229919   -1.5335724   -1.2344304   -1.2468949 0.0014954707 -0.0021442361 -0.0062488047 
 1538000   0.19834945 -0.0026654811   -1.5324394   -1.2349301   -1.2493804 -0.001837705 -0.00096822538 -0.005190513 
 1539000   0.19879927 -0.0031575299   -1.5301507   -1.2319667   -1.2490845 -7.1423801e-05 -0.0032199465 -0.0061812193 
 1540000   0.20141762 -0.0010752623   -1.5371838   -1.2350725   -1.2409018 0.0028554791 -0.003545696 -0.0025355701 
 1541000   0.19829026 -0.0019688274    -1.535963   -1.2385425   -1.2492161 0.0017921802 -0.0059214062 -0.0017772564 
 1542000   0.19890988 -0.003796961   -1.5327938   -1.2344439   -1.2550283 -0.0032436756 -0.0034261039 -0.0047211036 
 1543000   0.19789727 0.0020583799   -1.5257255   -1.2288944   -1.2177354 0.0034115273 0.0022332158 0.00053039676 
 1544000   0.20043898 -0.0031944336   -1.5322239   -1.2315804   -1.2488984 -0.00097020123 -0.0038702576 -0.0047428419 
 1545000   0.19921213 0.00078796135   -1.5324813   -1.2336781   -1.2294063 0.0044529656 0.00070248749 -0.002791569 
 1546000   0.19983902 0.00072783367   -1.5317512   -1.2320077   -1.2280619 0.0015282198 -0.0011687291 0.0018240104 
 1547000   0.19992426 -0.00065948564   -1.5355733   -1.2357019   -1.2392772 0.0071271294 -0.0034928867 -0.0056126997 
 1548000   0.20059067 -0.0010995209   -1.5338773   -1.2330063   -1.2389671 0.0001437169 -0.001806658 -0.0016356215 
 1549000   0.20036341 -0.00070807935   -1.5332174   -1.2326874   -1.2365261 0.0031571138 -0.0033713006 -0.0019100513 
 1550000   0.20140406 -0.0026282448   -1.5346073   -1.2325163   -1.2467647 -0.00080593447 -0.0021185657 -0.0049602342 
 1551000   0.19988861 -0.0019832799   -1.5318208   -1.2320028   -1.2427548 0.00063568293 0.0013067482 -0.0078922708 
 1552000    0.1999386 -0.0015541741   -1.5319384   -1.2320455   -1.2404711 0.00053451825 -0.0025290859 -0.0026679545 
 1553000   0.20138656 -0.0036195021   -1.5360327    -1.233968   -1.2535903 -0.0011083595 -0.0062386007 -0.003511546 
 1554000   0.20278535 1.1944993e-06   -1.5310469   -1.2268841   -1.2268776 0.0021031116 0.00081920059 -0.0029187287 
 1555000   0.20144894 -0.0033747945   -1.5299423    -1.227784   -1.2460797 -0.0020377941 -0.008464692 0.00037810268 
 1556000   0.20158245 -0.00086467013    -1.532912   -1.2305534    -1.235241 0.0037622848 -0.0016299963 -0.0047262988 
 1557000   0.20038142 -0.0012644169   -1.5341591    -1.233602   -1.2404568 0.0013114896 -0.0029019221 -0.0022028182 
 1558000   0.19879716 -0.0029399676   -1.5322883   -1.2341075   -1.2500458 -0.00067868049 -0.0045412449 -0.0035999774 
 1559000   0.20202933 -0.0023970626   -1.5315681   -1.2285393   -1.2415344 -0.00045008114 -0.0030269532 -0.0037141534 
 1560000   0.20052021 -0.0018412666    -1.530367   -1.2296017   -1.2395837 -0.0025581408 -0.0024307844 -0.0005348744 
 1561000   0.19986285 -0.0018412788   -1.5297957   -1.2300164   -1.2399985 0.0027614912 -0.0046508089 -0.0036345186 
 1562000   0.19788579 -0.0016837089   -1.5337552   -1.2369414   -1.2460692 0.0056408639 -0.0063083401 -0.0043836505 
 1563000   0.20153511 -0.0030668841   -1.5418043   -1.2395167   -1.2561432 0.0026490594 -0.0056873166 -0.0061623951 
 1564000   0.20053412 -0.0023782255   -1.5330714   -1.2322852   -1.2451782 -0.0013571689 -0.001543065 -0.0042344427 
 1565000   0.20036444 -0.0034779941   -1.5304005   -1.2298689    -1.248724 -0.003382696 -0.001284375 -0.0057669111 
 1566000   0.19971358 -0.0029488308   -1.5276466   -1.2280912   -1.2440776 -0.00057648969 -0.0017142552 -0.0065557476 
 1567000   0.20074045 0.00051648948   -1.5317072   -1.2306116   -1.2278115 0.0029404226 -0.0019588522 0.00056789802 
 1568000    0.2018157 -0.00011302126   -1.5329921   -1.2302837   -1.2308964 0.0046108928 -0.00041398245 -0.0045359741 
 1569000   0.19947967 -0.0035874743   -1.5350161   -1.2358116   -1.2552603 -0.0051179576 -0.0016946626 -0.0039498027 
 1570000   0.19945463 -0.0035349458   -1.5351648   -1.2359978   -1.2551618 -0.00068167059 -0.0063692447 -0.0035539221 
 1571000   0.20025924 -0.001515929   -1.5338181   -1.2334442   -1.2416625 0.0016649487 -0.0016469733 -0.0045657624 
 1572000   0.20027238 -0.00075880139   -1.5346928   -1.2342992   -1.2384129 0.0013838232 -0.0033523811 -0.00030784628 
 1573000   0.20107443 -0.0017276171   -1.5362472   -1.2346506   -1.2440165 0.0019363953 -0.0047190773 -0.0024001693 
 1574000   0.20036104 -0.0034355379   -1.5334165     -1.23289    -1.251515 0.00095219509 -0.0043034445 -0.0069553643 
 1575000   0.20127033 -0.0012727154   -1.5311833   -1.2292929   -1.2361926 0.0019174515 -0.0048106549 -0.00092494274 
 1576000    0.2006744 -0.0012684238   -1.5340233   -1.2330267   -1.2399032 0.00061887817 -0.005021916 0.00059776636 
 1577000   0.20097644 -0.0020366702    -1.537126   -1.2356764   -1.2467177 0.0020572198 -0.0058624279 -0.0023048025 
 1578000   0.19873827 -0.00037001249   -1.5401007   -1.2420082   -1.2440141 0.00095394697 0.0024646455  -0.00452863 
 1579000   0.20168501 -0.0003837103   -1.5378242   -1.2353118    -1.237392 0.0010829935 0.00057364188 -0.0028077663 
 1580000   0.20004236 -0.0033936602   -1.5341937   -1.2341451   -1.2525431 -0.0035755537 -0.002699737 -0.0039056898 
 1581000   0.20330638 -0.0014133263   -1.5355905   -1.2306462   -1.2383082 -0.00048818062 0.0013596941 -0.0051114924 
 1582000    0.1996384 0.0033928214   -1.5328652   -1.2334226   -1.2150291 0.0081357858 -0.0013451064 0.0033877848 
 1583000   0.20077714 -0.0046410234   -1.5308672   -1.2297166   -1.2548769 -0.001791772 -0.0056384564 -0.0064928417 
 1584000   0.19883081 -0.0042038563    -1.530709   -1.2324777    -1.255268 -0.0016794431 -0.0059477049 -0.0049844208 
 1585000   0.19890848 -0.0021814477   -1.5346346   -1.2362868    -1.248113 0.00070778832 -0.0041248659 -0.0031272656 
 1586000   0.20118487 0.00014284913   -1.5360642    -1.234302   -1.2335276 0.00015126086 -0.00093315363 0.0012104402 
 1587000   0.20133969 0.00040984382   -1.5368512   -1.2348568   -1.2326349 0.0020982773 0.00029687222 -0.0011656181 
 1588000   0.19993601 -0.0022265382   -1.5371717   -1.2372827   -1.2493533 0.00013872935 -0.0043651281 -0.0024532158 
 1589000   0.19823997 -0.0029350558   -1.5365012   -1.2391561   -1.2550679 -0.00049349469 -0.0040796848 -0.0042319878 
 1590000   0.20026471 -0.0021838066   -1.5352646   -1.2348825   -1.2467215 -0.0012100563 -0.0038063527 -0.0015350109 
 1591000   0.19845689 -0.0028763803   -1.5341998   -1.2365294    -1.252123 -0.0017229388 -0.0048513806 -0.0020548216 
 1592000   0.19846241 -0.0016545479    -1.532654   -1.2349753   -1.2439451 0.00041516976 -0.0018307621 -0.0035480513 
 1593000    0.1997059 -0.00060305153   -1.5314824   -1.2319386   -1.2352079 0.0014740933 -0.0024865726 -0.00079667528 
 1594000   0.19994924 -0.0010532734   -1.5304496   -1.2305407   -1.2362508 0.0017889738 -0.0050696962 0.00012090221 
 1595000   0.20109116 0.00072344668   -1.5350071   -1.2333854   -1.2294634 0.0026526728 0.00051168227 -0.00099401499 
 1596000   0.20103632 -0.0033432085   -1.5358668   -1.2343274   -1.2524519 -0.0029160955 -0.002868275 -0.0042452549 
 1597000   0.20053286 -0.0037525497     -1.53546   -1.2346758   -1.2550194 -0.0008889679 -0.0049381289 -0.0054305524 
 1598000   0.20239806 0.00063887664   -1.5303814   -1.2267995    -1.223336  0.004828247 0.00083487605 -0.0037464931 
 1599000   0.20073427 -0.0030288753   -1.5285556   -1.2274692   -1.2438896 -0.002596149 -0.0040591267 -0.0024313504 
 1600000    0.1994763 0.00030391009   -1.5323665    -1.233167   -1.2315194 0.0041236656 -0.0026292444 -0.00058269099 
 1601000   0.20031849 -0.00069539685   -1.5366362   -1.2361735   -1.2399435 0.0053086782 -0.001987164 -0.0054077047 
 1602000   0.19823323 0.00073794586   -1.5321903   -1.2348553   -1.2308547 0.0020159255 0.00026183547 -6.3923372e-05 
 1603000   0.20187809 -0.0022206669   -1.5267533   -1.2239513   -1.2359902 0.0013394033 -0.0069144167 -0.0010869873 
 1604000   0.20021823 -0.0045818455   -1.5288561   -1.2285438   -1.2533832 2.2282983e-05 -0.0062261506 -0.0075416688 
 1605000   0.20047929 0.00051119158   -1.5344318   -1.2337279   -1.2309566 0.0008567528 -0.0015840869 0.0022609089 
 1606000   0.20217133 0.0023064387   -1.5339496   -1.2307077   -1.2182039 0.0061632437 3.1039167e-05 0.00072503339 
 1607000   0.19917719 -0.0014398645   -1.5291114   -1.2303606   -1.2381665 0.0022137554 -0.0016554466 -0.0048779023 
 1608000   0.20093992 -0.0046782198   -1.5291135   -1.2277187   -1.2530806 -0.0013315936 -0.0022522025 -0.010450863 
 1609000   0.19920754 -0.0048957535   -1.5273334    -1.228537   -1.2550783 -0.0010087706 -0.0057650125 -0.0079134775 
 1610000   0.19852094 -0.00010934052   -1.5319622   -1.2341957   -1.2347884 0.0040057968 -0.0014664843 -0.0028673342 
 1611000   0.20059901 -0.0025321545   -1.5395846   -1.2387011   -1.2524286 -0.0019321127 -0.00013219941 -0.0055321514 
 1612000   0.20035441 -0.0013351634   -1.5354192   -1.2349026   -1.2421409 -0.0039371223 0.0014442153 -0.0015125832 
 1613000   0.19954443 -0.0049188469   -1.5311706    -1.231869   -1.2585354 -0.0041089986 -0.0023601431 -0.0082873991 
 1614000   0.19863091 3.0474845e-06   -1.5305475    -1.232616   -1.2325995 0.0050013596 -0.0027463857 -0.0022458315 
 1615000   0.20060757 -0.00024465665   -1.5379059   -1.2370096    -1.238336 0.0035961232 -0.0021742664 -0.0021558268 
 1616000   0.20146248 0.0018040376   -1.5393467   -1.2371681   -1.2273879 0.0066867138 0.0012494347 -0.0025240358 
 1617000   0.20051744 -0.0019891552   -1.5360226   -1.2352615   -1.2460452 0.0040071975 -0.0010594278 -0.0089152353 
 1618000   0.20037972 -0.0010734765   -1.5296424   -1.2290879   -1.2349075 0.00087802345 -0.0032560606 -0.00084239245 
 1619000   0.20126159 -0.0015343872   -1.5309477   -1.2290704   -1.2373887 0.0015725794 -0.0060029013 -0.00017283963 
 1620000   0.20172152 0.00044204719    -1.530012   -1.2274449   -1.2250484 0.0077682379 -0.0051554216 -0.0012866748 
 1621000   0.20155245 -0.00071629418   -1.5312499   -1.2289363   -1.2328196 0.0014989827 -0.0010835837 -0.0025642815 
 1622000   0.20156097 0.00019692482    -1.533414   -1.2310876   -1.2300201 0.0059951849 -0.0049186842 -0.00048572627 
 1623000   0.20078654 -0.00057984001   -1.5339981   -1.2328334   -1.2359768  0.004546276 -0.0050541324 -0.0012316636 
 1624000   0.20030853 0.00030363723   -1.5342348    -1.233787   -1.2321409 0.0029199418 -0.0020273617 1.8331553e-05 
 1625000   0.19874065 -0.0060308946    -1.528703   -1.2306069    -1.263302 -0.0052254047 -0.0088389529 -0.0040283262 
 1626000   0.19840382 0.0020261354   -1.5275894   -1.2299985   -1.2190143 0.0035883583 -0.0011963629 0.0036864109 
 1627000   0.20273188 0.0016756912   -1.5362063   -1.2321237   -1.2230393 0.0068392203 -0.00020892889 -0.0016032179 
 1628000   0.20137493 0.0015741102   -1.5340029   -1.2319556   -1.2234219 0.0051449533 -0.0031733786 0.0027507558 
 1629000   0.19943346 -0.0022936396   -1.5315194   -1.2323841   -1.2448186 0.0027108211 -0.0049050005 -0.0046867393 
 1630000   0.19915692 -0.0038886962   -1.5340299   -1.2353095   -1.2563912 -0.0041988315 -0.0030398751 -0.004427382 
 1631000   0.19984704 -0.00039492034   -1.5373003   -1.2375448   -1.2396857  0.004866328 -0.0063616835 0.00031059446 
 1632000   0.20115966 -0.0002346297   -1.5373459   -1.2356215   -1.2368935 0.0026080599 -0.0018152233 -0.0014967256 
 1633000   0.19887409 -0.0035622135    -1.535251   -1.2369547   -1.2562665 -0.0015007358 -0.0036537187 -0.0055321861 
 1634000   0.19735377 -0.0010774288   -1.5338058   -1.2377899    -1.243631 0.0024325076 -0.003488689 -0.0021761049 
 1635000   0.19683242 -0.001625439   -1.5354942   -1.2402603   -1.2490723 0.0033856079 -0.0028633121 -0.0053986128 
 1636000    0.2003566 -0.0021468232   -1.5368396   -1.2363198   -1.2479583 0.0023933063 -0.0052441644 -0.0035896116 
 1637000   0.20026968 0.00012259539   -1.5340773   -1.2336878   -1.2330231 -0.00075987687 -0.00091027299  0.002037936 
 1638000   0.19943784 -0.0018252285    -1.532904   -1.2337622   -1.2436573  0.001726632 -0.0039000704 -0.0033022472 
 1639000   0.19865098 -0.0028337713   -1.5353805   -1.2374189   -1.2527816 6.9716582e-05 -0.0078103457 -0.00076068467 
 1640000   0.20049492 -0.0026842814   -1.5349906   -1.2342633   -1.2488155 -0.0014362419 -0.0018307729 -0.0047858294 
 1641000   0.19998236 -0.0018716353   -1.5347602   -1.2348016   -1.2449483 0.00060252161 -0.0044851628 -0.0017322649 
 1642000   0.20089945 -0.00031648904   -1.5367222   -1.2353881   -1.2371039 0.0043569454 -0.002074328 -0.0032320845 
 1643000   0.19889267 0.00041977546   -1.5323179   -1.2339938   -1.2317181 0.0012411274 -0.00044709693 0.00046529591 
 1644000   0.20190544 -0.001534599   -1.5345217   -1.2316787   -1.2399981 -0.00066042569 -0.00062289838 -0.0033204728 
 1645000   0.20119862 -0.0002596121   -1.5345281   -1.2327453   -1.2341527 0.0028438935 0.0026379621 -0.0062606919 
 1646000   0.20165897 -0.00042915066   -1.5356419   -1.2331685   -1.2354951  0.001005222 -0.0020221817 -0.00027049227 
 1647000   0.19849556 0.0012731737   -1.5359142   -1.2381857   -1.2312835 0.0027919314 0.0018594889 -0.0008318993 
 1648000   0.19951386 -0.0014600387   -1.5365205   -1.2372647     -1.24518 0.0013780919 -0.0032030764 -0.0025551316 
 1649000   0.19896418 -0.0030311268   -1.5318863    -1.233455   -1.2498876 -0.00060942146 -0.0023414524 -0.0061425065 
 1650000   0.19916194 -0.0029890455   -1.5357067   -1.2369788   -1.2531832 0.0045050814 -0.0035976209 -0.0098745969 
 1651000    0.1997635 0.00070149319   -1.5368106   -1.2371803   -1.2333773 0.0029134535 -0.0012062939   0.00039732 
 1652000   0.19879294 -0.0045053225    -1.532355   -1.2341805   -1.2586051 -7.8709877e-05 -0.0078998069 -0.0055374507 
 1653000   0.20048311 -0.0024852889   -1.5318649   -1.2311553   -1.2446287 0.00012241122 -0.0043757384 -0.0032025394 
 1654000   0.19960211 0.0007664368   -1.5333825   -1.2339943   -1.2298393  0.005318977 -0.0019936551 -0.0010260115 
 1655000   0.19904599 -0.0027479961   -1.5393281    -1.240774   -1.2556717 0.00051905487 -0.0039505338 -0.0048125095 
 1656000   0.19852466 -0.0034530494   -1.5371731    -1.239401    -1.258121 0.00023936271 -0.0065592078 -0.0040393031 
 1657000   0.19807518 0.00023756747    -1.532659   -1.2355611   -1.2342732 0.0017945099 -0.001347003 0.00026519553 
 1658000   0.20069141 3.0090223e-05   -1.5328936   -1.2318715   -1.2317084 0.0028447064 0.00023895068 -0.0029933864 
 1659000   0.19987033 0.0010751501   -1.5327818   -1.2329913   -1.2271626 0.0009051087 -0.0011324355 0.0034527769 
 1660000   0.20001104 -0.0015205641   -1.5333153   -1.2333137   -1.2415571 -0.00070836468 -0.0020470816 -0.001806246 
 1661000   0.19760929 -0.0027071928   -1.5377319   -1.2413327   -1.2560092 -2.6251225e-05 -0.0026573877 -0.0054379395 
 1662000   0.20096024 -0.0024708255   -1.5381367   -1.2367114   -1.2501064 0.0014411434 -0.0052419667 -0.0036116532 
 1663000   0.19960781 -0.0022121755   -1.5330422   -1.2336454   -1.2456382 0.00038108602 4.5290791e-05 -0.0070629034 
 1664000   0.19894293 -0.0037815294   -1.5317639   -1.2333644   -1.2538651 -0.0023486731 -0.0051305791 -0.003865336 
 1665000   0.19971785 -0.0038649584   -1.5340397   -1.2344779   -1.2554309 -0.00044436844 -0.0068004218 -0.0043500849 
 1666000   0.19971976 -0.0064062082   -1.5343632   -1.2347986   -1.2695284 -0.0036276889 -0.0096953964 -0.0058955393 
 1667000   0.20009018 -0.0019672465   -1.5366873   -1.2365671   -1.2472321 0.0011844077 -0.0014399384 -0.005646209 
 1668000   0.19947449 -0.0037494471   -1.5384677   -1.2392709   -1.2595977 -0.0012017068 -0.0046827795 -0.005363855 
 1669000   0.20094069 -0.00060290784   -1.5351427   -1.2337467   -1.2370152 0.0013042283 -0.0034655136 0.00035256181 
 1670000    0.2005694 0.00058723572   -1.5316969   -1.2308578   -1.2276743 0.0037906092 0.00053343667 -0.0025623387 
 1671000   0.20176529 -0.0022024597   -1.5321106   -1.2294778    -1.241418 0.0025952331 -0.0030670285 -0.0061355837 
 1672000   0.19910963 -0.0038516811   -1.5374958   -1.2388463   -1.2597274 0.0018172556 -0.0048121225 -0.0085601763 
 1673000   0.20009968 0.0010145997   -1.5381773   -1.2380428   -1.2325424 0.00037018006 0.00076854915 0.0019050698 
 1674000   0.19904567 -0.0024114335   -1.5312292   -1.2326756   -1.2457486 -0.001532109 -0.00073053703 -0.0049716543 
[...]
 1846000   0.19966396 -0.005265617   -1.5311629   -1.2316819   -1.2602283 -0.0013744866 -0.010244532 -0.0041778323 
 1847000   0.19901639 0.00044627909   -1.5342075   -1.2356978   -1.2332784 0.0013907754 -0.0011359383 0.0010840002 
 1848000   0.19891357 -0.0023905557    -1.534455   -1.2360996   -1.2490595 -0.0025047686 -0.0012242134 -0.0034426852 
 1849000   0.19997882 -0.0025813762   -1.5312369   -1.2312837    -1.245278 0.00047915164 -0.0036855899 -0.0045376905 
 1850000   0.19962796  0.001955293   -1.5337189   -1.2342919   -1.2236917  0.006280011 0.0032117072 -0.0036258392 
 1851000   0.19967414 -0.0010489776   -1.5341297   -1.2346335   -1.2403203 0.00047680338 -0.00096806827 -0.0026556679 
 1852000   0.19850207 -0.0030872018   -1.5316018   -1.2338636   -1.2506002 -0.0016539998 -0.0029577313 -0.0046498744 
 1853000   0.19841669 -0.0014711932   -1.5289652    -1.231355   -1.2393308 -0.0015009193 -0.0001950202 -0.0027176402 
 1854000   0.19892331 -0.0022893198   -1.5282566   -1.2298866   -1.2422976 0.0014615495 -0.0055675616 -0.0027619473 
 1855000   0.20092202 -0.00038049454   -1.5294482   -1.2280803    -1.230143 0.0040254867 -0.0031997617 -0.0019672087 
 1856000   0.19989314 -0.00077607621   -1.5311225   -1.2312978   -1.2355051 0.0037204493 -0.0036487859 -0.0023998921 
 1857000    0.1996476 -0.0029666393   -1.5319556   -1.2324992   -1.2485821 0.0013134609 -0.0040731085 -0.0061402703 
 1858000   0.19931548 -0.0036706603   -1.5283701   -1.2294118   -1.2493115 0.0019364613 -0.008472842   -0.0044756 
 1859000   0.19923783 -0.0038085582   -1.5292979   -1.2304561   -1.2511034 -0.0010598867 -0.0041170442 -0.0062487435 
 1860000   0.19883152 -0.0022831271   -1.5295282   -1.2312958   -1.2436733 -0.00069902517 -0.0022196114 -0.0039307449 
 1861000      0.20269 -0.00085964226   -1.5381421   -1.2341223   -1.2387827 0.0055133646 -0.0034046669 -0.0046876244 
 1862000    0.2019596 -0.001056449   -1.5362007   -1.2332765   -1.2390038 0.0023888185 -0.0037311389 -0.0018270267 
 1863000   0.20249398 -0.0022855304    -1.532313   -1.2285872   -1.2409777 -0.0010857301 -0.0051506276 -0.00062023353 
 1864000   0.19912364 -0.00066364159   -1.5306665    -1.231996   -1.2355938 0.0010923781 -0.0010068222 -0.0020764807 
 1865000   0.19873189 -0.0013344133   -1.5314549   -1.2333719   -1.2406062 -0.0016788349 -0.0016264944 -0.00069791063 
 1866000   0.20025852 -0.00088461339   -1.5348136   -1.2344409   -1.2392366 0.0021418732 -1.7845977e-06 -0.0047939287 
 1867000   0.19847119 -0.003524755   -1.5319729    -1.234281   -1.2533897 -0.0014054592 -0.004414841 -0.0047539647 
 1868000   0.19787341 -0.0015843969   -1.5311788   -1.2343835   -1.2429729 0.0012098257 -0.0064037049 0.00044068857 
 1869000   0.20091163 -0.0024996388   -1.5365627   -1.2352104   -1.2487616 -0.00041984481 -0.0023226132 -0.0047564585 
 1870000   0.20079861 0.00038057507   -1.5325591   -1.2313763   -1.2293131 0.00088376167 -0.0015213894 0.0017793529 
 1871000   0.19961758 -0.0039872771   -1.5273466   -1.2279352   -1.2495514 -0.00051710843 -0.0047559658 -0.006688757 
 1872000   0.19998202 -0.0025090397   -1.5272351    -1.227277   -1.2408792 0.0017977445 -0.0053329677 -0.0039918961 
 1873000   0.20011588 -0.00053604014   -1.5282956   -1.2281368   -1.2310428 -0.00061535975 0.0028575813 -0.003850342 
 1874000   0.19769565 -0.0031366231   -1.5323592   -1.2358306   -1.2528351 -0.00090029628 -0.0049078185 -0.0036017545 
 1875000   0.20008421 -0.00053560648   -1.5341832   -1.2340719   -1.2369756 0.0047926066 -0.0027484835 -0.0036509425 
 1876000   0.19864573 -0.0012549718   -1.5295688   -1.2316151   -1.2384187 0.0045807165 -0.0046065226 -0.0037391093 
 1877000     0.198431 -0.0045744704   -1.5269247   -1.2292931   -1.2540926 -0.0022114646 -0.0028626031 -0.0086493437 
 1878000   0.19959501 -0.0031948055   -1.5293431   -1.2299656   -1.2472855 0.00047611444 -0.007579303 -0.002481228 
 1879000   0.20064317 -0.0018820061   -1.5330921   -1.2321424   -1.2423452 0.00073136904 -0.0013850294 -0.0049923579 
 1880000   0.19930315 0.0019447756   -1.5330887   -1.2341489   -1.2236058 0.0027711866 0.0027795308 0.0002836093 
 1881000   0.20033251 0.0013251203    -1.533389   -1.2329053   -1.2257214 0.0022009517 0.0011258114 0.00064859773 
 1882000   0.20160613 -0.0029151143   -1.5301313   -1.2277372   -1.2435409 0.00047891552 -0.0066225378 -0.0026017205 
 1883000   0.20111256 -0.001314028   -1.5270085   -1.2253547   -1.2324784 0.0015761379 -0.0034970912 -0.0020211307 
 1884000   0.20103966 -0.0043434661   -1.5352305   -1.2336861   -1.2572332 -0.00032418282 -0.0061988477 -0.0065073677 
 1885000   0.19857255 -0.0027657506   -1.5363249    -1.238481   -1.2534749 -0.0042370273 -0.00098321071 -0.0030770137 
 1886000   0.19801874 -0.0026360094   -1.5365327   -1.2395194     -1.25381 -0.0045098354 0.00045192178 -0.0038501145 
 1887000   0.19927333 -0.0014803685   -1.5342864   -1.2353914   -1.2434169 1.2233761e-06 -0.0018932089  -0.00254912 
 1888000   0.19905857 -0.00040226937   -1.5313596   -1.2327867   -1.2349675 0.0024062342 -0.0022221888 -0.0013908536 
 1889000   0.20126423 0.00095484923   -1.5346528   -1.2327716   -1.2275951 0.0023307552 -0.0021672367 0.0027010292 
 1890000   0.19865131 0.0014543883   -1.5311474   -1.2331853   -1.2253007 0.0038239604 0.0005474703 -8.2658102e-06 
 1891000   0.19990611  -0.00278376   -1.5332922    -1.233448   -1.2485395 -0.00045426243 -0.0027154167 -0.005181601 
 1892000   0.19742942 -0.0021035558   -1.5312291   -1.2350998   -1.2465038 0.0025283219 -0.0048091713 -0.004029818 
 1893000   0.19894837 -0.0011978068   -1.5302665   -1.2318588   -1.2383525   0.00115928 -0.0032735745 -0.0014791259 
 1894000   0.19925602 -0.0036708326   -1.5323011    -1.233432   -1.2533326 -0.00037670639 -0.0046062395 -0.0060295518 
 1895000   0.20023919 -0.0032680546   -1.5343623   -1.2340185   -1.2517356 -0.001852825 -0.0062591978 -0.001692141 
 1896000   0.19889438 -0.003955623   -1.5327193   -1.2343926   -1.2558372 -0.0022885582 -0.0068005915 -0.0027777192 
 1897000   0.19956066 -0.0029688587   -1.5347247   -1.2353987   -1.2514937 0.0017809451 -0.008459176 -0.0022283452 
 1898000   0.19798234 -0.0032553169   -1.5348331   -1.2378744   -1.2555224 -0.0020711276 -0.0051866705 -0.0025081525 
 1899000   0.20045131 -0.00048904376   -1.5286727   -1.2280107    -1.230662 0.0012442957 -0.0013024519 -0.0014089751 
 1900000   0.20215923 -0.0039840596    -1.531353   -1.2281293    -1.249728 6.6937009e-05 -0.0064526824 -0.0055664335 
 1901000   0.19791875 -0.0030566174   -1.5286327   -1.2317694   -1.2483402 -0.0017158392 -0.004976771 -0.0024772419 
 1902000   0.20070386 -0.0010207915   -1.5324385   -1.2313977   -1.2369317 -0.0004170429 -0.0023384143 -0.00030691729 
 1903000   0.20049393 -0.0015422903   -1.5324648   -1.2317389   -1.2401001 0.0019605147 -0.0025036995 -0.0040836861 
 1904000    0.2023737 0.0017014658   -1.5283139   -1.2247686   -1.2155444 0.0042431906 0.00066668356 0.00019452333 
 1905000   0.20042071 0.00018734036   -1.5263098   -1.2256938   -1.2246781 0.0026467794 -0.0017434061 -0.00034135226 
 1906000   0.20096482 -0.0014120831   -1.5320444   -1.2306122   -1.2382675 0.0012788223 -0.0023238354 -0.0031912362 
 1907000   0.19894734 0.00020869948   -1.5315324   -1.2331263   -1.2319949 0.0042867632 0.00013243765 -0.0037931024 
 1908000   0.20005968 9.1998979e-05   -1.5350523   -1.2349778    -1.234479 0.0051494874 -0.0010993529 -0.0037741376 
 1909000   0.20050863 -0.0020139149    -1.532095    -1.231347    -1.242265 -0.0028662712 -0.0035324281 0.0003569547 
 1910000   0.20073892 0.0016010079   -1.5328665   -1.2317732   -1.2230937 0.0053256663 -0.0003137965 -0.0002088461 
 1911000   0.20009628 0.0014948806   -1.5323177   -1.2321883   -1.2240841 0.0052864834 0.0016865209 -0.0024883624 
 1912000   0.19922262 -0.0020037732   -1.5325171   -1.2336981   -1.2445611 0.0042708486 -0.004128878 -0.0061532903 
 1913000   0.20111608 -0.0061259448   -1.5320289   -1.2303699   -1.2635804 0.0003308262 -0.0093612764 -0.0093473842 
 1914000   0.19910748 -0.0031425755   -1.5330544   -1.2344081   -1.2514449 -0.0010530289 -0.0026761966 -0.005698501 
 1915000   0.20001594 -0.0025232872   -1.5355612   -1.2355523   -1.2492318 -0.00068646196 -0.0046482262 -0.0022351734 
 1916000   0.19834797 -0.0023726404   -1.5350305   -1.2375234   -1.2503862 -0.00097345448 -0.00034655503 -0.0057979117 
 1917000   0.19928783 -0.0033432533   -1.5337627   -1.2348459   -1.2529706 -0.0053111964 9.5186928e-05 -0.0048137504 
 1918000   0.20063826 0.0031824134   -1.5337864    -1.232844   -1.2155913 0.0068031303 0.0018705148 0.00087359496 
 1919000   0.20183427 -0.0023603355   -1.5319113   -1.2291751   -1.2419711 -0.0022598285 -0.0014857975 -0.0033353806 
 1920000   0.20204006 -0.0032981654   -1.5311436   -1.2280986   -1.2459789 0.0029409252 -0.0023672443 -0.010468177 
 1921000   0.19895328 -0.0021332302   -1.5317779   -1.2333629   -1.2449277 0.00095688625 -0.00098614401 -0.006370433 
 1922000   0.20037069 -0.0038323509   -1.5332579   -1.2327169   -1.2534932 -0.00047173033 -0.0050304609 -0.0059948614 
 1923000   0.19923355 -0.0050768349    -1.532446   -1.2336106   -1.2611336 -0.0021097948 -0.0049337197  -0.00818699 
 1924000   0.20051577 -0.0019496109   -1.5369504   -1.2361918   -1.2467612 0.0011218101 -0.0051261226 -0.0018445203 
 1925000   0.20071284 0.00061463802   -1.5362996   -1.2352454   -1.2319133  0.003776148 -0.0014098572 -0.00052237677 
 1926000   0.20137069 -0.0019260513   -1.5355716   -1.2335307   -1.2439723 -0.0022648437 -0.0048045906 0.0012912805 
 1927000   0.20070104 -0.0010682566   -1.5281134   -1.2270769   -1.2328682 0.0020655316 -0.0025320584 -0.0027382429 
 1928000    0.1980385 -0.0053689475   -1.5332435   -1.2362006   -1.2653072 -0.0023147071 -0.0070988377 -0.0066932978 
 1929000   0.19982714 -0.0023728947   -1.5364338   -1.2367081   -1.2495722 1.4063038e-05 -0.0026385433 -0.0044942037 
 1930000   0.19862016 -0.0017090988   -1.5340849   -1.2361696   -1.2454351 0.00053439156 -0.0057078117 4.6123695e-05 
 1931000   0.20111374 0.00050377594   -1.5337236   -1.2320681    -1.229337 0.0060181351 -0.0043528859 -0.00015392135 
 1932000   0.20062128 -0.0041640683    -1.533282   -1.2323652   -1.2549397 -0.00093129014 -0.0040630155 -0.0074978992 
 1933000   0.19964506 -0.0037900007   -1.5343736    -1.234921   -1.2554676 0.0013864438 -0.0087685121 -0.0039879339 
 1934000   0.19997555 0.0020951475   -1.5326428   -1.2326944    -1.221336 0.0042108732 0.00033018647 0.0017443829 
 1935000   0.20149139 -0.0017104393   -1.5357154   -1.2334935   -1.2427662 -0.0015169144 -0.0038640546 0.00024965101 
 1936000   0.20151226 -0.00031368019   -1.5355479   -1.2332946   -1.2349951 0.0023398112 -0.0012879708 -0.001992881 
 1937000   0.20061822 -0.0024468305   -1.5383919   -1.2374796   -1.2507446  0.003788994 -0.0060484352 -0.0050810502 
 1938000   0.19831456 0.00034866343   -1.5306615   -1.2332045   -1.2313143 0.0031392689 -0.0010670453 -0.0010262333 
 1939000   0.20018401 -0.0026284982   -1.5356078   -1.2353468   -1.2495966 0.0019984094 -0.0077258355 -0.0021580685 
 1940000   0.19867396 -0.0039447118   -1.5356332   -1.2376371   -1.2590225 -0.0011586961 -0.0055690646 -0.0051063748 
 1941000   0.20052688 -0.00099695115   -1.5346375   -1.2338622   -1.2392669 0.0018113989 -0.0037888057 -0.0010134466 
 1942000   0.19991418 -0.0017081696   -1.5337701   -1.2339138   -1.2431743 0.00036940456 -0.00041228336  -0.00508163 
 1943000   0.19849251 -0.0034437851    -1.534401   -1.2366771   -1.2553468 0.00011699959 -0.0075665456 -0.0028818094 
 1944000   0.19800707 -0.0010272754   -1.5357305   -1.2387347   -1.2443039  0.003733173 -0.0053468516 -0.0014681477 
 1945000   0.19923461 -0.0033609916   -1.5387189   -1.2398819   -1.2581028 -0.0025215908 -0.0061055184 -0.0014558655 
 1946000   0.20151316 -0.002539779   -1.5378136    -1.235559   -1.2493278 -0.00057553602 -0.0024717806 -0.0045720202 
 1947000   0.19961625 -0.0011359854   -1.5349735   -1.2355641   -1.2417226 8.8332315e-05 -0.00070685091 -0.0027894376 
 1948000   0.19981092 0.00076108189   -1.5364096   -1.2367082   -1.2325822 0.0033525275 0.0017230547 -0.0027923365 
 1949000    0.1999973 0.00064211436   -1.5373293   -1.2373484   -1.2338673 0.00098999387 0.00026850344 0.00066784575 
 1950000   0.19832835 -0.0008831395   -1.5337888   -1.2363111   -1.2410989 8.8632084e-05 -0.0034444435 0.00070639289 
 1951000   0.19995967 0.0013865597   -1.5333131   -1.2333886   -1.2258717 0.00084872708 0.0022698955 0.0010410564 
 1952000   0.20006327 -0.00064393088   -1.5322361   -1.2321562   -1.2356471 -0.00037394881 -0.00099752435 -0.00056031946 
 1953000    0.2009744 -0.001669179   -1.5352413   -1.2337947   -1.2428438 0.0014255935 -0.0064229755 -1.0154915e-05 
 1954000   0.19914021 -0.0024459551   -1.5335806   -1.2348852   -1.2481454 -0.0021998408 -0.0023833194 -0.0027547051 
 1955000   0.20246631 -0.0025667618   -1.5355363    -1.231852   -1.2457671 0.0038784032 -0.0058686358 -0.0057100528 
 1956000   0.19904227 2.3092769e-05   -1.5331913   -1.2346429   -1.2345177 0.0034415782 -0.0018380287 -0.0015342712 
 1957000   0.20119101 0.0011966968    -1.538336   -1.2365646    -1.230077 0.0071108428 -0.002658462 -0.00086229023 
 1958000   0.20261871 0.00015595198   -1.5372889   -1.2333761   -1.2325306 0.0030211217 -0.0030542308 0.00050096507 
 1959000   0.20030474 -0.0048825574    -1.528113   -1.2276709   -1.2541406 -0.0020027773 -0.0074818135 -0.0051630814 
 1960000   0.19998992 -0.0024541648    -1.529905   -1.2299351   -1.2432398 -0.00089060159 -0.0052174946 -0.0012543981 
 1961000   0.19915822 -0.0032125165   -1.5308657   -1.2321433   -1.2495593 -0.002083309 -0.0056340977 -0.0019201429 
 1962000   0.19908798 -0.0034804461   -1.5327764   -1.2341594   -1.2530278 0.00074575282 -0.0049162198 -0.0062708714 
 1963000   0.19939491 -0.0021238876   -1.5340389   -1.2349615   -1.2464757 0.00027566006 -0.0051670097 -0.0014803132 
 1964000   0.19986055 -0.0011620779   -1.5297769   -1.2300011    -1.236301 0.0053817502 -0.0059067408 -0.0029612432 
 1965000   0.19920242 -0.00052083035   -1.5273447    -1.228556   -1.2313796 0.0007193164 0.0003063446 -0.0025881521 
 1966000   0.19734872 -0.0018028986   -1.5350269   -1.2390187   -1.2487927 -0.00088001539 -0.00058841428 -0.003940266 
 1967000   0.19971519 -1.5889274e-05    -1.535838   -1.2362802   -1.2363663 0.0023046235 0.00066541555 -0.0030177069 
 1968000   0.19995231 0.00086590697   -1.5330192   -1.2331057   -1.2284114 0.0016711365 0.0022808826 -0.0013542982 
 1969000    0.2014239 -0.0033059719   -1.5343541   -1.2322334    -1.250156 0.0019863062 -0.0074390159 -0.0044652059 
 1970000   0.19924545 -0.0019516482   -1.5384097   -1.2395565   -1.2501369 0.0024519567 -0.0051650133 -0.0031418879 
 1971000   0.19913411 -0.0031955259   -1.5378042    -1.239118   -1.2564418 -0.0016239895 -0.0069679117 -0.00099467649 
 1972000   0.20017845 -0.0049168755   -1.5380546   -1.2378019   -1.2644577 -0.0035245635 -0.0037557538 -0.0074703092 
 1973000   0.19881935 -0.0019290978   -1.5306802   -1.2324661   -1.2429242 0.00051060503 1.7456244e-05 -0.0063153547 
 1974000   0.20057513 -0.00094820563   -1.5283108   -1.2274631   -1.2326036 0.0038376128 -0.0053628259 -0.0013194038 
 1975000   0.19906682 -0.0022172232   -1.5348174   -1.2362321   -1.2482523 -0.00069105509 -0.0032085682 -0.0027520463 
 1976000   0.19966306 0.00059508979   -1.5426093   -1.2431297   -1.2399035 0.0056012586 -1.3619833e-05 -0.0038023694 
 1977000   0.19886885 0.0015976146   -1.5381009   -1.2398126   -1.2311514 0.00060933234 0.0047380854 -0.00055457385 
 1978000   0.20005907 -0.0029880474   -1.5343746    -1.234301   -1.2505001 0.00086959836 -0.0057980347 -0.0040357059 
 1979000   0.20120361 -0.0031239887   -1.5330016   -1.2312113   -1.2481473 -0.00038966566 -0.0028624772 -0.0061198232 
 1980000   0.20062965 -0.0012499375   -1.5303991   -1.2294697   -1.2362459 -0.0020236277 -0.0033216304 0.0015954458 
 1981000   0.20203767 -0.00042460619   -1.5292057   -1.2261644   -1.2284663  0.001104659 0.0031668079 -0.0055452855 
 1982000   0.20205827 -0.0015524602   -1.5315741   -1.2285019   -1.2369182 -0.00064033034 -0.00085817245 -0.0031588777 
 1983000   0.19944829 -0.0033162025   -1.5274728   -1.2283153   -1.2462933 0.0015046521 -0.0074093884 -0.0040438712 
 1984000   0.19862184 -0.0017718743     -1.53495   -1.2370321   -1.2466379 0.0032186161 -0.0021864733 -0.0063477657 
 1985000   0.19840075 -0.00043456301   -1.5397737   -1.2421875   -1.2445434 0.0049553856 -0.0032854937 -0.0029735809 
 1986000   0.19958223 -0.0011048377   -1.5360777   -1.2367193   -1.2427089 0.0011486951 -0.0017894804 -0.0026737277 
 1987000   0.20213038 -0.0040811336   -1.5341286   -1.2309482   -1.2530731 -0.0034537943 -0.0036046298 -0.0051849767 
 1988000   0.19950156 -0.0022411238   -1.5304279   -1.2311905   -1.2433403 0.00026488663 -0.0041129591 -0.0028752989 
 1989000   0.19963036 -0.0010967995   -1.5344864   -1.2350558   -1.2410019 0.0050962791 -0.0051048908 -0.0032817868 
 1990000   0.19963388 -0.002763294   -1.5352255   -1.2357897   -1.2507703 0.0004918773 -0.0022693347 -0.0065124245 
 1991000   0.19984859 0.0017379566   -1.5353184   -1.2355605   -1.2261386 0.0031997384 -0.0011318847  0.003146016 
 1992000   0.19820715 -0.0011963141   -1.5396922   -1.2423964   -1.2488819 0.00017049635 -0.0010703366 -0.0026891022 
 1993000   0.20044756 -0.0021894605   -1.5409934   -1.2403371   -1.2522068 -0.0038169771 5.9547603e-06 -0.0027573591 
 1994000   0.20105755 -0.0011478822   -1.5368736   -1.2353024   -1.2415254 0.0025436173 -0.0034134142 -0.0025738497 
 1995000    0.1998335 0.00032849947   -1.5343579   -1.2346226   -1.2328417 0.0049663605 -0.001893396 -0.0020874661 
 1996000   0.20034552 -0.0037282033   -1.5374255   -1.2369223   -1.2571339 -0.0048401345 -0.0029388366 -0.0034056389 
 1997000   0.19751641 -0.0009352423   -1.5365158    -1.240256   -1.2453262 -0.0010312436 0.0016706617 -0.003445145 
 1998000   0.20284939 -0.0015466931   -1.5345583   -1.2302994   -1.2386844 -0.00075971281 -0.004139498 0.00025913145 
 1999000   0.20127858 -0.0037316702   -1.5301469   -1.2282441   -1.2484745 -0.0038920866 -0.0019460214 -0.0053569026 
 2000000   0.19969536 -0.0011986301   -1.5370626   -1.2375345   -1.2440326 0.0021539554 -0.0025667729 -0.0031830729 
Loop time of 8270.16 on 1 procs for 1000000 steps with 20000 atoms

Performance: 52235.966 tau/day, 120.917 timesteps/s
100.0% CPU use with 1 MPI tasks x 1 OpenMP threads

MPI task timing breakdown:
Section |  min time  |  avg time  |  max time  |%varavg| %total
---------------------------------------------------------------
Pair    | 6547.3     | 6547.3     | 6547.3     |   0.0 | 79.17
Neigh   | 1354.4     | 1354.4     | 1354.4     |   0.0 | 16.38
Comm    | 49.095     | 49.095     | 49.095     |   0.0 |  0.59
Output  | 24.836     | 24.836     | 24.836     |   0.0 |  0.30
Modify  | 248.24     | 248.24     | 248.24     |   0.0 |  3.00
Other   |            | 46.28      |            |       |  0.56

Nlocal:    20000 ave 20000 max 20000 min
Histogram: 1 0 0 0 0 0 0 0 0 0
Nghost:    7340 ave 7340 max 7340 min
Histogram: 1 0 0 0 0 0 0 0 0 0
Neighs:    662413 ave 662413 max 662413 min
Histogram: 1 0 0 0 0 0 0 0 0 0

Total # of neighbors = 662413
Ave neighs/atom = 33.1206
Neighbor list builds = 69259
Dangerous builds = 0

write_restart 	out.restart.sys.final.${temp}
write_restart 	out.restart.sys.final.0.2
unfix intg
unfix ploadx
undump  trj
uncompute denprof
unfix   denprof

next    t
jump    SELF temperatureloop
variable t loop 10
variable  temp  equal 0.1+($t-1)*0.1
variable  temp  equal 0.1+(3-1)*0.1

#OUTPUT
# density profile
compute denprof all chunk/atom bin/1d x center ${xbin}
compute denprof all chunk/atom bin/1d x center 0.05
fix     denprof all ave/chunk 100 1000 500000 denprof density/number file out.profile.density.${temp}.data
fix     denprof all ave/chunk 100 1000 500000 denprof density/number file out.profile.density.0.3.data

#OUTPUT
log   log.lammps.${temp}
log   log.lammps.0.3
