thermo 1000
thermo_style custom step temp press pe etotal enthalpy pxx pyy pzz
dump 		trj all atom 500 out.sys_nvt.${temp}.lammpstrj
dump 		trj all atom 500 out.sys_nvt.0.1.lammpstrj
restart 100000 out.restart1.${temp} out.restart2.${temp}
restart 100000 out.restart1.0.1 out.restart2.${temp}
restart 100000 out.restart1.0.1 out.restart2.0.1

fix ploadx all balance 10000 1.05 shift x 20 1.05
fix intg all nvt temp ${temp} ${temp} ${tdump}
fix intg all nvt temp 0.1 ${temp} ${tdump}
fix intg all nvt temp 0.1 0.1 ${tdump}
fix intg all nvt temp 0.1 0.1 1
run ${Nrun}
run 1000000
Neighbor list info ...
  update every 1 steps, delay 10 steps, check yes
  max neighbors/atom: 2000, page size: 100000
  master list distance cutoff = 2.8
  ghost atom cutoff = 2.8
  binsize = 1.4, bins = 71 24 24
  1 neighbor lists, perpetual/occasional/extra = 1 0 0
  (1) pair lj/cut, perpetual
      attributes: half, newton on
      pair build: half/bin/atomonly/newton
      stencil: half/bin/3d/newton
      bin: standard
Per MPI rank memory allocation (min/avg/max) = 11.4 | 11.4 | 11.4 Mbytes
Step Temp Press PotEng TotEng Enthalpy Pxx Pyy Pzz 
       0            0  -0.36218732   -2.0699932   -2.0699932   -4.0335115  -0.35463058  -0.36596569  -0.36596569 
    1000  0.070055309   0.21548068   -2.1440115   -2.0389338  -0.87075298   0.30368393   0.17137906   0.17137906 
    2000  0.062147315  -0.25945517   -2.0911193    -1.997903   -3.4044818  -0.21542028  -0.28147262  -0.28147262 
    3000   0.10829531 -0.097487345   -2.1721365   -2.0097017   -2.5382077 -0.0029110007  -0.14477552  -0.14477552 
    4000   0.06060391   0.11254832   -2.0345687   -1.9436674   -1.3335116   0.21215603  0.062744471  0.062744471 
    5000  0.084482023 0.0027563374   -2.0646896   -1.9379729     -1.92303  0.066149168 -0.028940078 -0.028940078 
    6000  0.080708614  -0.19222777   -2.0483676   -1.9273107    -2.969431   -0.1264353  -0.22512401  -0.22512399 
    7000    0.1309075 -0.026603531   -2.0127064    -1.816355   -1.9605802  0.072295676 -0.076148115 -0.075958155 
    8000   0.10003312 -0.094474038   -2.0289606   -1.8789184   -2.3910885 -0.021992108  -0.13419668  -0.12723333 
    9000  0.097777283  0.013692626   -2.1023183   -1.9556597   -1.8814282  0.063729053 -0.010750456  -0.01190072 
   10000  0.099478887 -0.076338687   -2.0886512   -1.9394403   -2.3532936  -0.05557779 -0.087377996 -0.086060274 
   11000  0.097877848 -0.0028413315   -2.1281844    -1.981375   -1.9967786  0.035583186 -0.021672902 -0.022434279 
   12000   0.10385068   -0.0341297   -2.1025461   -1.9467779   -2.1318045 -0.014386143 -0.043797758 -0.044205199 
   13000  0.098771297 -0.015053385   -2.1237713   -1.9756218   -2.0572304  0.016593836 -0.031017314 -0.030736677 
   14000   0.10026743 -0.032419884   -2.1112914   -1.9608978    -2.136655  -0.01062612 -0.043717099 -0.042916434 
   15000  0.099033281 -0.024511876   -2.1206889   -1.9721465   -2.1050322 0.0014255112 -0.037886427 -0.037074711 
   16000  0.099568753 -0.025322978   -2.1166655   -1.9673198   -2.1046027 -0.001414593 -0.036760555 -0.037793787 
   17000  0.099932467  -0.02459808   -2.1180816   -1.9681904   -2.1015434 -0.00073071442 -0.035880867 -0.037182658 
   18000  0.099947546 -0.022677008   -2.1191555   -1.9692417   -2.0921801 0.0017046445 -0.035676692 -0.034058975 
   19000   0.10011613 -0.025615828   -2.1153564   -1.9651897   -2.1040603 -0.0042663916 -0.034755018 -0.037826075 
   20000   0.09922768 -0.020236858   -2.1200648   -1.9712307   -2.0809404  0.007153305 -0.033679892 -0.034183987 
   21000   0.10090897 -0.029210657   -2.1160688   -1.9647129    -2.123072 -0.008777069 -0.039670865 -0.039184038 
   22000  0.099002529 -0.021150624   -2.1224018   -1.9739054   -2.0885688 0.0062999284  -0.03462102 -0.035130782 
   23000   0.10017729 -0.029181565   -2.1153367   -1.9650783   -2.1232797 -0.0066893373 -0.039930412 -0.040924945 
   24000  0.098883002 -0.018963391   -2.1216206   -1.9733036   -2.0761094 0.0072011418 -0.032604471 -0.031486843 
   25000    0.1009511 -0.028276102    -2.115865   -1.9644459   -2.1177386 -0.0065907662 -0.038895639 -0.039341901 
   26000   0.10018806 -0.020387097    -2.122068   -1.9717934   -2.0823175 0.0051169576 -0.032423944 -0.033854304 
   27000    0.1006108 -0.025630538   -2.1167668   -1.9658581   -2.1048084 -0.0033115102 -0.037297657 -0.036282445 
   28000  0.099661361 -0.020806651   -2.1208174   -1.9713328   -2.0841314 0.0016702547 -0.030817142 -0.033273064 
   29000  0.099622493 -0.024373894   -2.1188898   -1.9694635   -2.1016012 -0.0018118411 -0.034654893 -0.036654949 
   30000  0.099621484 -0.025369691   -2.1197709   -1.9703461   -2.1078823 -0.00091034714  -0.03657879 -0.038619935 
   31000  0.099033215 -0.022853194   -2.1197769   -1.9712345    -2.095128 0.0016937758 -0.035333032 -0.034920326 
   32000   0.10092063 -0.026110588   -2.1189518   -1.9675784   -2.1091312 -0.0037666927 -0.037769714 -0.036795358 
   33000   0.10005971 -0.019175124   -2.1206814   -1.9705994   -2.0745531 0.0060155294 -0.031934371 -0.031606531 
   34000   0.10056224 -0.026566458   -2.1168645   -1.9660287   -2.1100529 -0.0038326005 -0.037426439 -0.038440335 
   35000   0.09900503 -0.021655245   -2.1221982   -1.9736981   -2.0910972 0.0036666348 -0.034694388 -0.033937981 
   36000   0.10008154 -0.029635502   -2.1181839   -1.9680691   -2.1287314 -0.0080099654 -0.041344631 -0.039551909 
   37000   0.10011564 -0.023374226   -2.1234434   -1.9732774   -2.0999956 0.0022937661 -0.036109843   -0.0363066 
   38000   0.10086642 -0.025257768   -2.1185682   -1.9672761   -2.1042055 -0.0036997425 -0.036673435 -0.035400128 
   39000   0.10072425 -0.021292386   -2.1203754   -1.9692966   -2.0847285 0.0035660379 -0.034635475 -0.032807722 
   40000   0.10073525  -0.02382149   -2.1193776   -1.9682823   -2.0974252 -0.00064823673 -0.035621055  -0.03519518 
   41000   0.09930357  -0.02383857   -2.1187756   -1.9698277   -2.0990633 -0.0010078058 -0.034729488 -0.035778416 
   42000    0.1000269 -0.024943698   -2.1216577   -1.9716249   -2.1068516 0.00011635554  -0.03764948 -0.037297969 
   43000  0.099603514 -0.024908193   -2.1190821   -1.9696843   -2.1047186 -0.00035808263 -0.037395981 -0.036970515 
   44000  0.099755458 -0.022809445   -2.1205894   -1.9709637     -2.09462 0.0027683893 -0.035228526 -0.035968198 
   45000   0.10073988 -0.025432133   -2.1196688   -1.9685665   -2.1064412 -0.0025658812 -0.036931424 -0.036799093 
   46000  0.099798114 -0.020889991   -2.1206125   -1.9709228   -2.0841733 0.0045981259 -0.033084547 -0.034183551 
   47000   0.10043993 -0.026193734   -2.1176094    -1.966957   -2.1089606 -0.0033854873 -0.038641351 -0.036554364 
   48000   0.10003517 -0.023197665   -2.1218949   -1.9718497   -2.0976107 0.0018401605 -0.036952039 -0.034481116 
   49000  0.099332244 -0.025365557   -2.1181008   -1.9691099   -2.1066236 -0.0028465621 -0.037285706 -0.035964401 
   50000   0.09967231 -0.023562127   -2.1214713   -1.9719703   -2.0997072 0.0002532331 -0.036742303 -0.034197313 
   51000   0.10015265 -0.025025047   -2.1198468   -1.9696253   -2.1052931 -0.001971795 -0.037443691 -0.035659656 
   52000   0.09953782 -0.023574508   -2.1192999   -1.9700006   -2.0978046 0.0017352831 -0.037855861 -0.034602948 
   53000   0.10026446 -0.022775441   -2.1206325   -1.9702433   -2.0937154 0.0012824549  -0.03651835 -0.033090428 
   54000    0.1003474 -0.024611265    -2.117657   -1.9671434    -2.100568 -0.0016595586 -0.036732846 -0.035441389 
   55000    0.1010438 -0.022796367    -2.122495   -1.9709369   -2.0945223 0.0024156087 -0.036260492 -0.034544219 
   56000  0.099368158 -0.025224571   -2.1179874   -1.9689426    -2.105692 -0.0014084608 -0.037112012 -0.037153241 
   57000  0.099145902  -0.02260041   -2.1217463   -1.9730348    -2.095558  0.001863659 -0.034960788 -0.034704101 
   58000  0.099332869 -0.027079621   -2.1181937   -1.9692019    -2.116008 -0.0037010283 -0.038835662 -0.038702173 
   59000   0.10024564 -0.023002986   -2.1222527   -1.9718918   -2.0965973 0.0015672798 -0.035234059  -0.03534218 
   60000   0.10063421 -0.025579196   -2.1190597    -1.968116   -2.1067879 -0.0024764413 -0.038406156  -0.03585499 
   61000  0.099499254 -0.022439399   -2.1197484    -1.970507   -2.0921572 0.0022361476 -0.035103857 -0.034450486 
   62000   0.10055295 -0.024955032   -2.1199831   -1.9691612   -2.1044494 -0.0011772541 -0.036777549 -0.036910292 
   63000  0.099547824 -0.022215096   -2.1199933    -1.970679   -2.0911132 0.0015763083 -0.032737954 -0.035483642 
   64000  0.099301869 -0.024183304   -2.1196398   -1.9706945   -2.1017989 -0.0002273752 -0.036771973 -0.035550563 
   65000  0.099835668   -0.0268141   -2.1202899   -1.9705439   -2.1159106 -0.0033809134  -0.03869202 -0.038369367 
   66000     0.100092 -0.024280114   -2.1211711   -1.9710406   -2.1026699 -0.00052149659 -0.035923984 -0.036394861 
   67000   0.10035775 -0.023525122   -2.1186349   -1.9681058   -2.0956421 -8.7492831e-06 -0.036358935 -0.034207684 
   68000   0.10071965 -0.023370006   -2.1221945   -1.9711226   -2.0978179 0.0026931929 -0.036751028 -0.036052183 
   69000   0.10042017 -0.025241302   -2.1195068    -1.968884   -2.1057242 -0.0012450297 -0.037829719 -0.036649155 
   70000  0.099472969 -0.023024442   -2.1206966   -1.9714946   -2.0963165 0.0015249177  -0.03578104 -0.034817203 
   71000   0.10016088 -0.024885744   -2.1198076   -1.9695738   -2.1044863 -0.0010757844 -0.037611871 -0.035969577 
   72000   0.10056849 -0.023852414   -2.1214952     -1.97065   -2.0999606  0.001548396 -0.036028997 -0.037076641 
   73000   0.10055437 -0.026618089   -2.1198871   -1.9690631   -2.1133672 -0.0035302617 -0.038088577 -0.038235428 
   74000   0.10049315 -0.024053209    -2.121755   -1.9710228    -2.101422 -0.00014231301 -0.035754786 -0.036262529 
   75000  0.099518555  -0.02579394   -2.1209044    -1.971634   -2.1114701 -0.0017986974 -0.037411588 -0.038171533 
   76000  0.099102565 -0.026187233   -2.1204197   -1.9717732   -2.1137415 -0.0046524182 -0.036756063 -0.037153218 
   77000   0.10051313 -0.023297407   -2.1224712    -1.971709   -2.0980108 0.00049292891 -0.035725419 -0.034659731 
   78000   0.10047026 -0.026193457   -2.1195048    -1.968807    -2.110809 -0.0023967738 -0.038867874 -0.037315725 
   79000  0.099755795 -0.023010883   -2.1233762     -1.97375   -2.0984984 0.0026047952 -0.036159154 -0.035478289 
   80000   0.10063225 -0.026149058   -2.1194832   -1.9685424   -2.1103037 -0.0024598102 -0.038174554 -0.037812808 
   81000  0.099934201 -0.021835237   -2.1200432   -1.9701494   -2.0885243 0.0033353246 -0.034823834 -0.034017201 
   82000   0.10094964 -0.027645981   -2.1210903   -1.9696735     -2.11955 -0.0040559231 -0.039669808 -0.039212212 
   83000  0.099300927 -0.024295487   -2.1205898   -1.9716459   -2.1033585 0.00035661373 -0.036269139 -0.036973937 
   84000   0.10000311 -0.023374599   -2.1215006   -1.9715035   -2.0982237  0.002205307  -0.03648283 -0.035846273 
   85000   0.10107211 -0.024780942   -2.1202632   -1.9686626    -2.103007 -0.00025477532 -0.037283263 -0.036804787 
   86000   0.10076764 -0.023068848   -2.1212639     -1.97012   -2.0951826 0.0018114917 -0.035951109 -0.035066925 
   87000  0.099064835  -0.02546043   -2.1184829   -1.9698931   -2.1079212 -0.0019477548 -0.036876664 -0.037556871 
   88000  0.099423925  -0.02408664   -2.1214681   -1.9723397   -2.1029201 0.0012749671 -0.035722306 -0.037812582 
   89000   0.10010363 -0.024318248   -2.1196974   -1.9695495   -2.1013855 0.00072850907 -0.036276467 -0.037406788 
   90000   0.10042155 -0.022309276   -2.1206427   -1.9700179   -2.0909627 0.0025177048  -0.03441699 -0.035028542 
   91000   0.10014607 -0.023699731   -2.1198977   -1.9696861    -2.098169 0.0013704683 -0.036194136 -0.036275526 
   92000  0.099791264 -0.023366527   -2.1206867   -1.9710073   -2.0976837 0.0015727276 -0.035404099 -0.036268209 
   93000   0.10038687 -0.024726501   -2.1181977   -1.9676249   -2.1016742 -0.0028046999 -0.036004815 -0.035369989 
   94000  0.099322602 -0.024100588   -2.1217295   -1.9727531   -2.1034091 0.00081165754  -0.03642023  -0.03669319 
   95000   0.10003058 -0.026259433   -2.1193536   -1.9693152   -2.1116749 -0.001739598 -0.038520661 -0.038518039 
   96000  0.099591163 -0.021793698   -2.1195451   -1.9701658   -2.0883155 0.0013611571 -0.033435977 -0.033306275 
   97000  0.099986865 -0.024535265   -2.1199356   -1.9699628   -2.1029754 -0.0014732732 -0.036690798 -0.035441725 
   98000  0.099445426 -0.024790013   -2.1196723   -1.9705116   -2.1049052 -0.0014663046 -0.037836657 -0.035067078 
   99000  0.099527619 -0.024004642   -2.1192176   -1.9699337   -2.1000695 0.00018250201 -0.036224221 -0.035972207 
  100000   0.09981879 -0.024329324   -2.1195825   -1.9698618   -2.1017579 0.00021342228 -0.037331189 -0.035870205 
  101000   0.10068261 -0.023431458   -2.1209243    -1.969908   -2.0969364 0.0008712232 -0.035947188 -0.035218409 
  102000  0.099202725 -0.021994106   -2.1204701   -1.9716735   -2.0909096 0.0024475077 -0.035190821 -0.033239006 
  103000  0.099444861 -0.026156558   -2.1212549    -1.972095    -2.113897 -0.0026751186 -0.037042253 -0.038752301 
  104000   0.10087097  -0.02572276   -2.1227143   -1.9714154   -2.1108657 -0.001322651 -0.037693525 -0.038152105 
  105000  0.099709875 -0.023899997   -2.1199263    -1.970369   -2.0999375 -0.00081506946 -0.035292609 -0.035592311 
  106000    0.1002141 -0.023260506   -2.1202235   -1.9699099   -2.0960116 0.0019431599 -0.036729576 -0.034995102 
  107000   0.10159138 -0.024098157   -2.1210661   -1.9686867   -2.0993295 -0.00076298577  -0.03542365 -0.036107837 
  108000    0.1000281 -0.025001177   -2.1196582   -1.9696235   -2.1051619 -0.0015701579 -0.036322707 -0.037110667 
  109000   0.10006398 -0.021944339   -2.1218165    -1.971728   -2.0906944 0.0025675511 -0.034800402 -0.033600165 
  110000  0.099724654 -0.026728767   -2.1209209   -1.9713414   -2.1162455 -0.001710624 -0.039253432 -0.039222246 
  111000  0.099704423 -0.023624453   -2.1204121   -1.9708629   -2.0989377 0.00093588322 -0.036087023 -0.035722218 
  112000   0.10033131 -0.022961986   -2.1189551   -1.9684657    -2.092949 0.00095678441 -0.034802667 -0.035040076 
  113000   0.10046453 -0.023431887   -2.1195269   -1.9688376   -2.0958684  0.001155745 -0.036496438 -0.034954967 
  114000   0.10030206 -0.021651828   -2.1212733   -1.9708278   -2.0882084 0.0034199426  -0.03400721 -0.034368217 
  115000  0.099097423 -0.025008315   -2.1183535   -1.9697147   -2.1052918 -0.0024801201 -0.035569707 -0.036975116 
  116000   0.10016098 -0.022663259   -2.1221276   -1.9718937   -2.0947575 0.00019969572 -0.034366286 -0.033823186 
  117000  0.099186471 -0.025585891   -2.1193516   -1.9705793   -2.1092876 -0.0023351798 -0.037162028 -0.037260467 
  118000  0.098919925 -0.023425936   -2.1207066   -1.9723341   -2.0993326 0.0011059781 -0.035090212 -0.036293573 
  119000  0.099695444 -0.025045901   -2.1203142   -1.9707785   -2.1065593 -0.0020470457 -0.036958711 -0.036131947 
  120000  0.099407545 -0.026275377   -2.1187617   -1.9696579    -2.112104 -0.0022810114 -0.038058946 -0.038486173 
  121000   0.10021116 -0.021775803   -2.1204747   -1.9701654   -2.0882181 0.0037238779 -0.035646028  -0.03340526 
  122000   0.10062214 -0.022980569   -2.1196448   -1.9687192   -2.0933032  0.000109412 -0.034465304 -0.034585813 
  123000   0.10030033 -0.024886433   -2.1208604   -1.9704175   -2.1053337 -0.0018252156 -0.037051249 -0.035782834 
  124000  0.099970181 -0.023828551   -2.1207492   -1.9708014   -2.0999827 0.00077489294 -0.035855877  -0.03640467 
  125000   0.10054037 -0.025749901   -2.1200028   -1.9691998   -2.1087972 -0.0032168034 -0.036506579  -0.03752632 
  126000   0.10039139 -0.022101409   -2.1193557   -1.9687761    -2.088594 0.0016737732 -0.033549038 -0.034428963 
  127000   0.10071263 -0.025385811    -2.120893   -1.9698316   -2.1074551 -0.0012904034 -0.037303777 -0.037563251 
  128000   0.10004348 -0.024524748   -2.1208392   -1.9707815   -2.1037369 -0.00079866175 -0.035814761  -0.03696082 
  129000  0.099734047 -0.025738532   -2.1206091   -1.9710155   -2.1105512 -0.001623389 -0.038434929 -0.037157277 
  130000  0.098257198 -0.022809299   -2.1185315   -1.9711531   -2.0948087 0.0010584679 -0.035114576 -0.034371788 
  131000  0.099200649 -0.022890203   -2.1191731   -1.9703796   -2.0944738 -5.1547254e-05 -0.034314799 -0.034304263 
  132000   0.10040656 -0.022912355   -2.1194084   -1.9688061   -2.0930204 0.0015159002 -0.035292094 -0.034960871 
  133000   0.10012667 -0.024510901   -2.1205553   -1.9703728   -2.1032532 -0.0011504274 -0.036190041 -0.036192235 
  134000   0.10003059 -0.026621709   -2.1210329   -1.9709945   -2.1153182 -0.0036913026 -0.038076437 -0.038097387 
  135000  0.099804552 -0.022321226   -2.1211234    -1.971424   -2.0924336 0.0026141604 -0.035763965 -0.033813875 
  136000  0.099722445 -0.022011684   -2.1186802   -1.9691041   -2.0884355  0.001240446 -0.034492516 -0.032782981 
  137000  0.098733789 -0.023151877   -2.1210122   -1.9729189   -2.0984316 0.0011195967 -0.035386848 -0.035188379 
  138000  0.098797468 -0.025281213   -2.1201017   -1.9719129   -2.1089694 -0.0017246288 -0.037684941 -0.036434068 
  139000    0.1001434 -0.025499968    -2.120896   -1.9706884   -2.1089308 -0.0017804012 -0.037293498 -0.037426005 
  140000   0.10077769 -0.025710551   -2.1209704   -1.9698114   -2.1091955 -0.0020606975 -0.037941917 -0.037129039 
  141000   0.10088098 -0.023325179   -2.1197577   -1.9684438   -2.0948961 0.0015818652  -0.03562081 -0.035936593 
  142000    0.1001128 -0.021243428   -2.1195576   -1.9693959   -2.0845624 0.0027169584 -0.032914751 -0.033532492 
  143000   0.10166977 -0.024960532    -2.122087     -1.96959    -2.104908  -0.00123812 -0.037253782 -0.036389694 
  144000   0.10043382 -0.020970855   -2.1199995   -1.9693563   -2.0830451 0.0020147765 -0.031717529 -0.033209812 
  145000   0.10017251 -0.023565675   -2.1208363   -1.9705851   -2.0983411 -0.00042907674 -0.034250246 -0.036017704 
  146000   0.10023369 -0.028567469   -2.1216123   -1.9712693   -2.1261415 -0.0037695638 -0.041533042   -0.0403998 
  147000  0.099759896 -0.024448999   -2.1218957   -1.9722633   -2.1048082 0.00055379371 -0.037412859 -0.036487932 
  148000   0.10036674 -0.024594461   -2.1197429   -1.9692004   -2.1025338 -0.0013294661 -0.035819365 -0.036634551 
  149000   0.10076616 -0.020354969   -2.1197018   -1.9685601   -2.0789101 0.0032995876 -0.031012545 -0.033351949 
  150000   0.10048057 -0.022495515   -2.1191951   -1.9684818   -2.0904362 0.0013425378 -0.034458704  -0.03437038 
  151000  0.099668467 -0.023419828   -2.1209966   -1.9715014   -2.0984668 0.00052919328 -0.035597781 -0.035190897 
  152000  0.099623313 -0.025514137   -2.1205827   -1.9711552   -2.1094744 -0.0027970815 -0.037420891 -0.036324437 
  153000  0.098891474 -0.024906014   -2.1219651   -1.9736353   -2.1086577 -0.00090738771 -0.037329782 -0.036480872 
  154000  0.099549121 -0.024846941   -2.1211227   -1.9718065   -2.1065087 -0.0013687623  -0.03610203 -0.037070031 
  155000  0.099895187 -0.023532441   -2.1207434   -1.9709081    -2.098484 -0.00077575409 -0.035750079 -0.034071489 
  156000   0.10030341 -0.021990452   -2.1203035   -1.9698559   -2.0890722 0.0010693186 -0.033205105 -0.033835569 
  157000  0.099088541 -0.022231532   -2.1189465   -1.9703211   -2.0908445 0.0014603963 -0.034052953 -0.034102039 
  158000  0.099919497 -0.021922109   -2.1200979   -1.9702261    -2.089072 0.0019083035 -0.032918433 -0.034756197 
  159000   0.10010253 -0.022741875   -2.1201258   -1.9699795   -2.0932695 0.0018870147 -0.034687942 -0.035424698 
  160000   0.10029724 -0.024772699   -2.1209773    -1.970539   -2.1048387 -0.00018977885  -0.03629983 -0.037828487 
  161000   0.10010708 -0.024321589   -2.1208731   -1.9707199   -2.1025741 -0.0011443043 -0.035464356 -0.036356107 
  162000  0.099424866 -0.024559838   -2.1202192   -1.9710893   -2.1042351 -0.0020414845 -0.036230468 -0.035407561 
  163000  0.099830428 -0.023027238   -2.1209745   -1.9712363   -2.0960734 -2.3448369e-05 -0.033798706 -0.035259561 
  164000  0.099903331 -0.024934706   -2.1201582   -1.9703107   -2.1054887 -0.0024478099 -0.035594912 -0.036761395 
  165000   0.10013613 -0.020387585   -2.1208751   -1.9706785   -2.0812052 0.0043809909 -0.032704236  -0.03283951 
  166000   0.10021844 -0.023947237   -2.1203851    -1.970065   -2.0998896 -0.00041372576 -0.035682656 -0.035745329 
  167000  0.099580949 -0.024118752   -2.1208235   -1.9714596    -2.102214 -0.00069448567 -0.036885993 -0.034775777 
  168000  0.099625839 -0.025407758   -2.1209289   -1.9714976   -2.1092402 -0.0027912752 -0.036900965 -0.036531033 
  169000  0.099246136 -0.023492557   -2.1193931   -1.9705313    -2.097891 -0.00044570706 -0.034933644 -0.035098322 
  170000  0.099294559 -0.022535902   -2.1205321   -1.9715977   -2.0937711 0.0024075329 -0.034080429 -0.035934811 
  171000   0.10002054 -0.023029687   -2.1186872   -1.9686638   -2.0935142 4.2935162e-05  -0.03419482 -0.034937177 
  172000    0.1010859 -0.019845598   -2.1205145   -1.9688932   -2.0764817 0.0049784427 -0.031708276 -0.032806959 
  173000   0.10114521 -0.023289813   -2.1207821   -1.9690719   -2.0953325 -0.00080634449 -0.035380914 -0.033682179 
  174000   0.10032497 -0.023639526   -2.1218807   -1.9714007   -2.0995572 -2.0888913e-05 -0.035764722 -0.035132966 
  175000  0.099634407 -0.023793643   -2.1204335   -1.9709894   -2.0999814 -0.0001304464 -0.035573148 -0.035677334 
  176000   0.10004276 -0.024230646   -2.1212101   -1.9711535   -2.1025146 -0.0022875603 -0.034932892 -0.035471487 
  177000  0.099767794 -0.024325636   -2.1206224   -1.9709781   -2.1028542 -0.00026038728  -0.03690923  -0.03580729 
  178000  0.099626232 -0.022873547   -2.1186182   -1.9691864   -2.0931902  0.001525998 -0.035668518  -0.03447812 
  179000   0.10023524 -0.021167763   -2.1203766   -1.9700312   -2.0847876 0.0029705713  -0.03282868  -0.03364518 
  180000   0.10074357 -0.023429581   -2.1211269   -1.9700191   -2.0970374 0.00079916543 -0.036105468 -0.034982441 
  181000   0.10009269 -0.024102891   -2.1205361   -1.9704046   -2.1010731 -0.00051775901 -0.036396768 -0.035394146 
  182000  0.099635436 -0.023992216    -2.120697   -1.9712513   -2.1013198 -0.00085523673 -0.036499089 -0.034622322 
  183000  0.099560021 -0.023621705   -2.1214305    -1.972098   -2.1001578 -0.00033526057 -0.035887602 -0.034642253 
  184000  0.099080982  -0.02255911   -2.1194719   -1.9708579   -2.0931571 0.00028406064 -0.033994604 -0.033966786 
  185000  0.099511764 -0.024124429   -2.1217772   -1.9725171   -2.1033023 0.00042332111 -0.037015808 -0.035780799 
  186000  0.099734901 -0.026745502   -2.1222006   -1.9726057   -2.1176005 -0.0030442526 -0.038960945 -0.038231309 
  187000  0.099366415 -0.024283814   -2.1209631   -1.9719209   -2.1035702 -0.00069953461 -0.036888143 -0.035263766 
  188000  0.099806623  -0.02489299   -2.1211858   -1.9714833   -2.1064351 -0.0011189022 -0.037337173 -0.036222894 
  189000   0.10003025 -0.024757473    -2.121111   -1.9710731   -2.1052903 -0.0012540878 -0.037181463 -0.035836869 
  190000   0.10110211 -0.022168276   -2.1210419   -1.9693963   -2.0895767 0.0016250379 -0.034179745  -0.03395012 
  191000   0.10091081 -0.022511682   -2.1195468   -1.9681882   -2.0902303 0.0015235569 -0.033643063 -0.035415541 
  192000   0.10055424 -0.021726975   -2.1210636   -1.9702398   -2.0880278 0.0014816428 -0.033979892 -0.032682676 
  193000  0.099679728 -0.025601306   -2.1199265   -1.9704144   -2.1092062 -0.004210804 -0.036333916 -0.036259197 
  194000  0.099158591 -0.020782032   -2.1207532   -1.9720228    -2.084688 0.0027553261 -0.031897542 -0.033203879 
  195000   0.10008187 -0.027617564   -2.1209091   -1.9707938   -2.1205163 -0.0043311107 -0.039666544 -0.038855036 
  196000    0.1004361 -0.023394693   -2.1223541   -1.9717075   -2.0985366 0.00034526573 -0.035209817 -0.035319528 
  197000   0.10088156 -0.024780366   -2.1211369   -1.9698221   -2.1041634 -0.0020870797 -0.037048528  -0.03520549 
  198000   0.10058704 -0.024140415   -2.1215546   -1.9706816   -2.1015535 -0.0021925963 -0.035140252 -0.035088398 
  199000   0.10040254 -0.024883435   -2.1226806   -1.9720843   -2.1069843 -0.001746306  -0.03635917 -0.036544831 
  200000  0.099429985 -0.025538344   -2.1194037   -1.9702662   -2.1087167 -0.0027651898 -0.037031506 -0.036818338 
  201000    0.1005593 -0.022038228   -2.1214017   -1.9705703   -2.0900456 0.0029593332 -0.035221935 -0.033852082 
  202000   0.10079855 -0.025207395    -2.120053   -1.9688627    -2.105519  -0.00153375 -0.036681627 -0.037406809 
  203000   0.10041774 -0.024977809   -2.1211905   -1.9705714   -2.1059831 -0.00073242743 -0.037323933 -0.036877066 
  204000   0.10007139 -0.024709263   -2.1199726    -1.969873   -2.1038288 0.00030806092 -0.036783887 -0.037651964 
  205000    0.1004566 -0.022306266   -2.1202439   -1.9695665    -2.090495 0.00036815177 -0.034595728 -0.032691221 
  206000  0.099915984 -0.022348664   -2.1183256   -1.9684591   -2.0896174 0.0010050512 -0.034869246 -0.033181796 
  207000  0.099965629 -0.023717748   -2.1204934   -1.9705524    -2.099133 0.00072058934 -0.035359009 -0.036514824 
  208000  0.099808497 -0.024686809   -2.1193258   -1.9696206   -2.1034546 -0.0011946952 -0.036312649 -0.036553084 
  209000   0.10002535 -0.021138067   -2.1204233   -1.9703928   -2.0849881 0.0045923588 -0.034898099  -0.03310846 
  210000  0.099744269 -0.023645756   -2.1208929    -1.971284   -2.0994742 0.0003680843 -0.035719426 -0.035585926 
  211000  0.099384999 -0.025263338   -2.1207403   -1.9716703   -2.1086299 -0.0026448672 -0.036810231 -0.036334915 
  212000  0.099488133 -0.023810155    -2.120309   -1.9710842   -2.1001657 -0.00059818766 -0.035436942 -0.035395334 
  213000   0.09948769 -0.025325692   -2.1202443   -1.9710202   -2.1083178 -0.0022358574 -0.037819916 -0.035921302 
  214000  0.099225434 -0.023847846   -2.1214061   -1.9725754   -2.1018612  0.000245354 -0.036335909 -0.035452984 
  215000  0.099905917 -0.024573262   -2.1214081   -1.9715568   -2.1047753 -0.0010408696 -0.036780407  -0.03589851 
  216000   0.10063589 -0.024136164   -2.1218089   -1.9708627   -2.1017115 -0.00041463368 -0.035998527  -0.03599533 
  217000  0.099994444 -0.023612452   -2.1202229   -1.9702387   -2.0982484 -0.00058677493 -0.035090507 -0.035160075 
  218000   0.10010929 -0.023963064   -2.1179594   -1.9678029   -2.0977134 -0.00082361862   -0.0360911 -0.034974475 
  219000   0.10074095 -0.022312531   -2.1193701   -1.9682663   -2.0892287 0.0020162257 -0.034119314 -0.034834506 
  220000   0.10066919 -0.024239373   -2.1200051   -1.9690089   -2.1004173 0.00047432065 -0.036272265 -0.036920176 
  221000   0.10033743 -0.024482464   -2.1206864   -1.9701878   -2.1029141 -0.00058926433 -0.035802591 -0.037055538 
  222000  0.099963748 -0.024843664   -2.1206647   -1.9707266    -2.105411 -0.00082974341 -0.037751854 -0.035949395 
  223000  0.099847562 -0.025808952   -2.1213478    -1.971584   -2.1115015 -0.0013626906 -0.038388218 -0.037675948 
  224000   0.09920968 -0.022323456   -2.1191792   -1.9703721   -2.0913938 0.0020724831 -0.034221583 -0.034821267 
  225000   0.10047968 -0.024459455   -2.1189404   -1.9682284     -2.10083 -0.0011810368 -0.036620986 -0.035576343 
  226000   0.10063866 -0.021307577   -2.1192145    -1.968264   -2.0837783 0.0028574217 -0.033342969 -0.033437183 
  227000   0.10004764 -0.023104473   -2.1188418   -1.9687779   -2.0940337  0.001014921 -0.035895757 -0.034432582 
  228000  0.099380679 -0.021403539   -2.1189102   -1.9698467   -2.0858812 0.0010408869 -0.032682046 -0.032569458 
  229000  0.099413836 -0.023861083   -2.1217112   -1.9725979   -2.1019554 0.0012015667 -0.036923144  -0.03586167 
  230000  0.099748818  -0.02742628   -2.1210701   -1.9714544   -2.1201399 -0.0035307785 -0.039479419 -0.039268643 
  231000   0.10012519  -0.02315294   -2.1217507   -1.9715704   -2.0970889 -9.4533176e-06 -0.034251857  -0.03519751 
  232000   0.10036165 -0.025201039   -2.1185674   -1.9680325   -2.1046543  -0.00272442  -0.03725551 -0.035623186 
  233000   0.10007664 -0.022344473   -2.1200518   -1.9699443   -2.0910799 0.0012164378 -0.034257088 -0.033992768 
  234000   0.10022356 -0.022857096   -2.1201118    -1.969784   -2.0936987 0.0012240251 -0.034534125 -0.035261189 
  235000    0.1000241 -0.023010718   -2.1212936    -1.971265   -2.0960125 0.00093466921 -0.035122501 -0.034844321 
  236000  0.099415305  -0.02473851   -2.1213713   -1.9722558   -2.1063702 0.0003097661  -0.03704554 -0.037479755 
  237000  0.099954761 -0.025695815   -2.1214627    -1.971538   -2.1108422 -0.0033321776 -0.036840361 -0.036914908 
  238000  0.099528233 -0.024762184   -2.1207557   -1.9714709   -2.1057136 -0.0012112887 -0.036190853 -0.036884411 
  239000    0.1000775 -0.024396027   -2.1198149   -1.9697061   -2.1019638 -0.00090916369 -0.036285553 -0.035993363 
  240000   0.10076671 -0.022320418   -2.1199361   -1.9687936   -2.0897988 0.0027430247 -0.035197695 -0.034506583 
  241000   0.10037655 -0.022648762   -2.1202162   -1.9696589   -2.0924441 0.0023364167  -0.03547292 -0.034809784 
  242000  0.098676515 -0.024192486   -2.1209721   -1.9729647   -2.1041189 -3.8974872e-05 -0.036419235 -0.036119247 
  243000  0.099298845 -0.025461424   -2.1202298    -1.971289   -2.1093225 -0.0019661108 -0.037483234 -0.036934926 
  244000   0.09958195 -0.023476083     -2.12059   -1.9712245   -2.0984949 0.00091307095  -0.03565765  -0.03568367 
  245000  0.099359504 -0.022456516   -2.1187344   -1.9697026   -2.0914456 0.0017560713 -0.035008389  -0.03411723 
  246000   0.10044584 -0.023882431    -2.120916   -1.9702548   -2.0997281 0.0012758262 -0.036876489 -0.036046631 
  247000   0.10008959 -0.023199459   -2.1196818    -1.969555   -2.0953257 0.00062339989 -0.034925168 -0.035296608 
  248000   0.10098972 -0.023786425   -2.1188843   -1.9674073   -2.0963601 -0.00050555936 -0.035187358 -0.035666359 
  249000   0.10009059 -0.023907739   -2.1219134    -1.971785   -2.1013955 0.0001796425 -0.035281072 -0.036621789 
  250000   0.10085027 -0.027574593   -2.1210738    -1.969806   -2.1192956 -0.0056711006 -0.038838394 -0.038214285 
  251000   0.10032454  -0.02273223   -2.1220712   -1.9715919   -2.0948297 0.0041000775 -0.036251489 -0.036045278 
  252000  0.099419263 -0.023842989   -2.1188183   -1.9696968   -2.0989563 -0.00014139756 -0.035817103 -0.035570467 
  253000   0.09993234 -0.024006206   -2.1232239   -1.9733329   -2.1034773 0.0010078992 -0.037379646 -0.035646873 
  254000   0.10081042 -0.025708671   -2.1207575   -1.9695495   -2.1089233 -0.0033117741  -0.03762237  -0.03619187 
  255000   0.10018067 -0.025122588   -2.1216826   -1.9714191   -2.1076157 -0.0011575411 -0.037562547 -0.036647676 
  256000    0.1000777 -0.025240577   -2.1198269   -1.9697179   -2.1065541 -0.001956308 -0.037661487 -0.036103935 
  257000   0.10006617 -0.023760251   -2.1227117     -1.97262   -2.1014309 -3.5382197e-05 -0.035508892  -0.03573648 
  258000   0.09969834 -0.025272871   -2.1204401      -1.9709   -2.1079113 -0.0011625962 -0.036988337  -0.03766768 
  259000   0.10025011 -0.024820201   -2.1218111   -1.9714435   -2.1060007 -0.0025981645 -0.035554399 -0.036308041 
  260000   0.10037561 -0.024521978   -2.1216051   -1.9710493   -2.1039897 0.00057615416 -0.036143353 -0.037998734 
  261000   0.10068218 -0.026388337   -2.1204199   -1.9694042   -2.1124627 -0.0034075704 -0.038047412 -0.037710029 
  262000   0.10064255 -0.023634992   -2.1192625   -1.9683062   -2.0964381 0.0010486264 -0.036182505 -0.035771098 
  263000   0.10097672 -0.021655375   -2.1193026   -1.9678451   -2.0852449 0.0024063975 -0.034395391 -0.032977131 
  264000  0.099955651 -0.024689832   -2.1188927   -1.9689667   -2.1028172 -0.0017747407 -0.035720658 -0.036574097 
  265000   0.10012712 -0.023541743   -2.1205043   -1.9703212   -2.0979475 0.00088445749 -0.035762756 -0.035746929 
  266000   0.10050652 -0.024276464   -2.1218592   -1.9711069   -2.1027164 -0.0017121566 -0.035145636 -0.035971599 
  267000  0.099875007 -0.025224481   -2.1213078   -1.9715028   -2.1082517 -0.001340114 -0.036595349 -0.037737982 
  268000  0.099332577 -0.025854048   -2.1212671   -1.9722757   -2.1124377 -0.0015451497 -0.037392626 -0.038624367 
  269000  0.098525297 -0.023563254   -2.1196266   -1.9718461   -2.0995891 -0.00011996833 -0.034978081 -0.035591714 
  270000   0.10031596 -0.022846337   -2.1204117   -1.9699453   -2.0938016 0.0008217978 -0.034226785 -0.035134023 
  271000  0.099772268 -0.023702605   -2.1202494   -1.9705985   -2.0990969 0.00088248082 -0.036390979 -0.035599316 
  272000  0.099203658 -0.025445519   -2.1205662   -1.9717682   -2.1097154 -0.0009234756 -0.037923558 -0.037489522 
  273000  0.099696183 -0.024553606     -2.12036   -1.9708232   -2.1039351 -0.0004139999  -0.03654039 -0.036706427 
  274000   0.10026277 -0.023131857   -2.1211832   -1.9707966   -2.0962008 0.0017267069 -0.036023376 -0.035098901 
  275000  0.099714217 -0.023615674   -2.1195106   -1.9699468   -2.0979739 -0.002221701 -0.033895826 -0.034729495 
  276000  0.099851631  -0.02119244   -2.1194039    -1.969634   -2.0845241 0.0035380245 -0.033518954  -0.03359639 
  277000   0.10035832  -0.02375018   -2.1191243   -1.9685943   -2.0973507 0.0013332074 -0.037608217 -0.034975529 
  278000  0.099731997 -0.023468773   -2.1196626   -1.9700721   -2.0973029 0.00096385742 -0.036709446 -0.034660732 
  279000  0.099544735 -0.024545975   -2.1202964   -1.9709868   -2.1040574 -0.0013668536  -0.03425868 -0.038012392 
  280000  0.099845502 -0.025879142   -2.1205466   -1.9707858   -2.1110839 -0.0032294708 -0.036513767  -0.03789419 
  281000   0.10075606 -0.024093809   -2.1217789   -1.9706524   -2.1012716 6.1321141e-05  -0.03588956  -0.03645319 
  282000   0.10004043 -0.023145482     -2.11942   -1.9693669    -2.094845 0.0016651338 -0.036245969 -0.034855611 
  283000  0.099501794 -0.021086134   -2.1195246   -1.9702794   -2.0845932 0.0043641525  -0.03518277 -0.032439786 
  284000   0.10046509 -0.024808282   -2.1203105   -1.9696204    -2.104113 -0.001880932 -0.036964857 -0.035579057 
  285000  0.099507993 -0.023609592   -2.1193835   -1.9701289   -2.0981231 0.00031285762 -0.034887567 -0.036254066 
  286000  0.099049017 -0.023982011   -2.1216666   -1.9731005   -2.1031137 -0.00078775497   -0.0355326 -0.035625678 
  287000  0.098999167 -0.024032371    -2.121278   -1.9727866   -2.1030728 -1.9437167e-05 -0.036112053 -0.035965623 
  288000  0.099742645 -0.023750732   -2.1215962   -1.9719897   -2.1007491 0.0013374622 -0.037132056 -0.035457602 
  289000   0.10001672 -0.023886349   -2.1212422   -1.9712246   -2.1007192 -0.00055970113 -0.035613233 -0.035486112 
  290000     0.100054 -0.024959187   -2.1200315    -1.969958   -2.1052687 -0.0010141184 -0.036568366 -0.037295078 
  291000   0.10030568 -0.023246129   -2.1209061   -1.9704551   -2.0964788 -0.00051168497 -0.034988348 -0.034238353 
  292000   0.10019329 -0.022601912   -2.1197245   -1.9694421   -2.0919733 0.00014928541 -0.033971804 -0.033983217 
  293000   0.10049146 -0.021850475   -2.1207475   -1.9700178   -2.0884754 0.0024882634  -0.03381104 -0.034228649 
  294000   0.09986538 -0.024509025   -2.1200699   -1.9702793   -2.1031495 -0.002068715 -0.036184422 -0.035273936 
  295000   0.10021782 -0.023343486   -2.1216248   -1.9713056   -2.0978571 7.8934015e-05  -0.03486332 -0.035246073 
  296000   0.10032033 -0.025103945    -2.120736    -1.970263   -2.1063585 -0.0030795263 -0.036880146 -0.035352162 
  297000  0.099478577 -0.023897999   -2.1230856   -1.9738752   -2.1034329 -0.0020333848 -0.035237052  -0.03442356 
  298000  0.099842515 -0.025115009   -2.1208522    -1.971096   -2.1072514 -0.0014765811 -0.036830819 -0.037037626 
  299000  0.099937642 -0.023440524   -2.1199289   -1.9700299   -2.0971075 0.00042517393 -0.035723879 -0.035022867 
  300000  0.099786365 -0.021783246   -2.1206089   -1.9709368   -2.0890298 0.0025783441 -0.033666587 -0.034261494 
  301000   0.09973167 -0.025293765    -2.119868    -1.970278   -2.1074025 -0.0019959646 -0.037315874 -0.036569456 
  302000  0.099187686 -0.021847868   -2.1207382   -1.9719641   -2.0904075 0.0021287699   -0.0336317 -0.034040675 
  303000   0.10011887 -0.024114818    -2.119116   -1.9689452   -2.0996783 -0.00074046307 -0.035383155 -0.036220835 
  304000   0.10062629 -0.021543185   -2.1199116   -1.9689797   -2.0857713 0.0020081998 -0.033090887 -0.033546867 
  305000   0.10035835 -0.023166736   -2.1201987   -1.9696687    -2.095262 -0.00076192497 -0.034572731 -0.034165552 
  306000   0.10032064 -0.023280087    -2.120704   -1.9702306   -2.0964384 -0.00022614544 -0.034164324 -0.035449793 
  307000  0.099529472 -0.022613038   -2.1218075   -1.9725208   -2.0951123 0.0021816582 -0.035024805 -0.034995968 
  308000  0.099416644 -0.023693762   -2.1193379   -1.9702203   -2.0986708 -0.00082008607  -0.03535765  -0.03490355 
  309000   0.10070164 -0.021529458   -2.1219128   -1.9708679   -2.0875851 0.0020082364  -0.03294499 -0.033651621 
  310000   0.10082272 -0.024283234   -2.1198608   -1.9686343   -2.1002805 -0.0019710063 -0.036147282 -0.034731413 
  311000   0.10029924 -0.022037952   -2.1206522   -1.9702109   -2.0896847 0.0016996412 -0.033901196   -0.0339123 
  312000   0.09968869 -0.023981365   -2.1202132   -1.9706877   -2.1006973 -4.6574525e-05 -0.034724913 -0.037172609 
  313000  0.099764905 -0.022906469   -2.1209385   -1.9712986   -2.0954809 0.00088630309 -0.035189102 -0.034416607 
  314000  0.099368887 -0.023462046   -2.1212879   -1.9722421   -2.0994364 0.0002648508 -0.034498156 -0.036152833 
  315000  0.099203299 -0.026238158    -2.121006   -1.9722085   -2.1144528 -0.003623636 -0.037623886 -0.037466951 
  316000  0.099891977 -0.022630698   -2.1209562   -1.9711257    -2.093813  0.001745873 -0.035405642 -0.034232325 
  317000  0.099825142  -0.02265218   -2.1189104   -1.9691802    -2.091984 -0.00038126278 -0.034321057  -0.03325422 
  318000   0.10028673 -0.023437887   -2.1216441   -1.9712215   -2.0982848 -0.00012298771 -0.034437272 -0.035753403 
  319000  0.099244282 -0.022318538   -2.1199512   -1.9710922   -2.0920872  0.001342137 -0.034665399 -0.033632352 
  320000  0.099585143 -0.023861797   -2.1204514   -1.9710812   -2.1004426 -0.0023495987 -0.034944795 -0.034290997 
  321000  0.099797055 -0.021550788   -2.1202266   -1.9705385   -2.0873713 0.0020259556 -0.033544282 -0.033134037 
  322000   0.10037124 -0.022200882   -2.1197818   -1.9692324   -2.0895896 0.0014222771 -0.034772992  -0.03325193 
  323000   0.10044776 -0.022029062    -2.119395   -1.9687309   -2.0881565 0.0020219637 -0.034769826 -0.033339323 
  324000   0.10045537 -0.023015109   -2.1200653   -1.9693898   -2.0941611 0.00036306532 -0.034591883 -0.034816509 
  325000   0.10064848 -0.026072167   -2.1219819   -1.9710167   -2.1123612 -0.0031994803 -0.037053391 -0.037963631 
  326000  0.099921474 -0.024159877   -2.1207195   -1.9708448   -2.1018222 0.0011643226 -0.036321681 -0.037322271 
  327000  0.099044098 -0.022137932   -2.1210975   -1.9725388   -2.0925547  0.002749331 -0.034635351 -0.034527775 
  328000   0.10052497 -0.024012086   -2.1220099     -1.97123   -2.1014062 -0.0012952255 -0.035969032 -0.034772001 
  329000   0.09970515 -0.020536454   -2.1206738   -1.9711235   -2.0824574 0.0049938938 -0.033567267 -0.033035988 
  330000   0.10060628 -0.026327582   -2.1204929    -1.969591   -2.1123202 -0.0031771118 -0.037054868 -0.038750766 
  331000  0.099289982  -0.02243533   -2.1210143   -1.9720868   -2.0937149 0.00072578967 -0.034993843 -0.033037936 
  332000  0.099496922 -0.025553263   -2.1216919    -1.972454   -2.1109854 -0.0031945984  -0.03732094 -0.036144249 
  333000  0.099447543 -0.023679531   -2.1201613   -1.9709975   -2.0993708 -0.00074665222 -0.035487851 -0.034804089 
  334000   0.10026838 -0.023365861   -2.1225256   -1.9721306   -2.0988034  0.000805329 -0.034200884 -0.036702027 
  335000   0.10079858  -0.02529063   -2.1198465   -1.9686562   -2.1057637 -0.0030742535 -0.036405809 -0.036391826 
  336000     0.100475 -0.021463938   -2.1202735   -1.9695685   -2.0859305 0.0023796942 -0.033806745 -0.032964764 
  337000   0.10041905  -0.02465003   -2.1197181   -1.9690971   -2.1027317 -0.0015600096  -0.03537171 -0.037018372 
  338000  0.099219024  -0.02362093   -2.1206911     -1.97187   -2.0999256 0.0010841802 -0.036377446 -0.035569523 
  339000  0.099835304 -0.024029828   -2.1219955     -1.97225   -2.1025224 -0.00047561502 -0.035430839 -0.036183029 
  340000  0.099552364 -0.025476006   -2.1209198   -1.9715987   -2.1097112 -0.0023391654 -0.036439865 -0.037648987 
  341000   0.10032111  -0.02017763   -2.1212556   -1.9707815     -2.08017 0.0042448561 -0.030971706 -0.033806041 
  342000  0.099805398 -0.023416908   -2.1198502   -1.9701496   -2.0970992 0.00041789689 -0.035673122   -0.0349955 
  343000  0.099659803 -0.022519245   -2.1209333   -1.9714511   -2.0935342 0.0012537297 -0.034858017 -0.033953449 
  344000  0.098422085 -0.023359862   -2.1203089   -1.9726832   -2.0993235 0.0018391343 -0.035173417 -0.036745302 
  345000  0.099479482 -0.024509515   -2.1217957   -1.9725839   -2.1054568 -0.00018032848 -0.036439382 -0.036908836 
  346000   0.10069488 -0.022354261   -2.1216337   -1.9705989   -2.0917876 0.0012935362 -0.032961205 -0.035395115 
  347000   0.10078235 -0.022301411   -2.1208565   -1.9696905   -2.0905927 0.00095023998 -0.034083527 -0.033770945 
  348000  0.099715734 -0.024810881   -2.1201756   -1.9706095   -2.1051162 -0.0026901503 -0.035450232  -0.03629226 
  349000  0.098847164 -0.022972412    -2.120056   -1.9717927   -2.0963325 -0.00029413432 -0.034180106 -0.034442997 
  350000   0.10061056 -0.024728469   -2.1211329   -1.9702246   -2.1042846 -0.00059965604 -0.036485813 -0.037099937 
  351000   0.10012722 -0.022174799   -2.1201666   -1.9699833    -2.090199 0.0015124232 -0.033398439 -0.034638381 
  352000   0.10024221 -0.022025936   -2.1196036   -1.9692478   -2.0886565 0.0021438821 -0.035111878 -0.033109811 
  353000   0.10045984 -0.021661479   -2.1192626   -1.9685803   -2.0860133 0.0021271673 -0.034094306 -0.033017298 
  354000  0.099701494 -0.022145123    -2.119993   -1.9704482   -2.0905031 0.00032903735 -0.033407881 -0.033356525 
  355000  0.098751878 -0.023354083   -2.1191636   -1.9710432   -2.0976522 -0.00024514577 -0.035383648 -0.034433455 
  356000   0.10052266 -0.023708171    -2.121774   -1.9709975   -2.0995261 0.00015905343 -0.035135287 -0.036148279 
  357000   0.10096574 -0.023174793   -2.1196259   -1.9681849   -2.0938219 -0.00080563553 -0.034750986 -0.033967759 
  358000   0.10111106 -0.022379395   -2.1218055   -1.9701465   -2.0914714 0.0013033469 -0.033999505 -0.034442027 
  359000   0.10098762 -0.024472613   -2.1210443   -1.9695704   -2.1022433 -0.0009074233 -0.036299569 -0.036210848 
  360000   0.10075328  -0.02307366   -2.1195788   -1.9684565   -2.0935452 0.00010493595  -0.03420583 -0.035120085 
  361000    0.1003166 -0.022404013   -2.1202176   -1.9697502   -2.0912086 0.0015167896 -0.034066735 -0.034662094 
  362000   0.10037042 -0.024835769   -2.1211777   -1.9706296   -2.1052712 -0.0024902322  -0.03537227 -0.036644806 
  363000  0.099783432 -0.025599387   -2.1218809   -1.9722132   -2.1109946 -0.0022782121 -0.036484669 -0.038035279 
  364000  0.099728279 -0.024072624   -2.1219723   -1.9723874   -2.1028918 0.00043578534 -0.036699564 -0.035954093 
  365000  0.099605059 -0.023303586   -2.1196509   -1.9702508    -2.096586 -0.0017278334 -0.033915752 -0.034267172 
  366000   0.10075533 -0.021912058   -2.1212502   -1.9701248   -2.0889162 0.0023440409 -0.033553083 -0.034527132 
  367000   0.10004726  -0.02196582   -2.1191693   -1.9691059   -2.0881888 0.00085499513 -0.033424247 -0.033328209 
  368000   0.10064518 -0.022968527   -2.1216299   -1.9706697   -2.0951885 0.00046682161 -0.033264263 -0.036108141 
  369000     0.100171 -0.024250083   -2.1205155   -1.9702665    -2.101733 -3.2107596e-05 -0.037285092  -0.03543305 
  370000   0.10023377  -0.02484447   -2.1213337   -1.9709906   -2.1056794 -0.0019671253 -0.036555735  -0.03601055 
  371000  0.099689594 -0.024795076   -2.1195069   -1.9699799    -2.104401 -0.0023258497 -0.036351833 -0.035707545 
  372000   0.10047001 -0.021261708   -2.1201292   -1.9694318   -2.0846974 0.0032053206 -0.033095759 -0.033894685 
  373000   0.10095687 -0.023345428     -2.12121   -1.9697822   -2.0963443 -0.00039380014  -0.03503885 -0.034603634 
  374000  0.099843095 -0.024048604   -2.1214467   -1.9716895   -2.1020637 -0.00048797836  -0.03564874 -0.036009095 
  375000   0.10042262 -0.024485775   -2.1223829   -1.9717565   -2.1045007 -0.0004211476  -0.03628415 -0.036752026 
  376000   0.10034137 -0.023352036   -2.1191319   -1.9686273   -2.0952252 -0.00022455878 -0.035283882 -0.034547667 
  377000   0.10169468 -0.021091173   -2.1212195   -1.9686851   -2.0830262 0.0026044282 -0.032503985 -0.033373963 
  378000   0.10010108 -0.022754522   -2.1194191    -1.969275   -2.0926336 1.6807874e-05 -0.033618986 -0.034661388 
  379000  0.099671155 -0.023305217     -2.12097   -1.9714707   -2.0978148 0.0012166681 -0.035329394 -0.035802924 
  380000  0.099917177 -0.025531365   -2.1216979   -1.9718296   -2.1102423 -0.0018257612 -0.038340424 -0.036427909 
  381000  0.099266173 -0.024645342   -2.1225819   -1.9736901   -2.1072994 -8.6753582e-06 -0.036362742 -0.037564607 
  382000  0.099904192 -0.023819157   -2.1216873   -1.9718385   -2.1009688 -0.00066326999 -0.034313193 -0.036481008 
  383000  0.099504784 -0.024236085   -2.1197384   -1.9704887   -2.1018792 -0.0026653644 -0.034386263 -0.035656629 
  384000    0.1007239 -0.021683082    -2.120673   -1.9695947   -2.0871447 0.0032027782 -0.033291199 -0.034960825 
  385000   0.10140758 -0.021394864   -2.1199016   -1.9677978   -2.0837853 0.0029429339 -0.033239001 -0.033888525 
  386000   0.10044778 -0.022082874   -2.1204202   -1.9697561   -2.0894735 0.0015130481 -0.033961351 -0.033800319 
  387000   0.10041502 -0.023615447    -2.121169    -1.970554   -2.0985799 -0.00083498383 -0.035068369 -0.034942987 
  388000  0.099602203 -0.024292262   -2.1202083   -1.9708125   -2.1025076 -0.0018151074 -0.035463026 -0.035598653 
  389000  0.099701454 -0.023084562   -2.1220192   -1.9724745   -2.0976224 0.00056790556  -0.03418181 -0.035639781 
  390000  0.099915161 -0.026192169   -2.1192974   -1.9694322   -2.1114272 -0.0044608784 -0.036264086 -0.037851543 
  391000   0.10053066 -0.021124082   -2.1215605    -1.970772   -2.0852915 0.0027682993 -0.033191741 -0.032948803 
  392000   0.10023245 -0.024153869   -2.1192039   -1.9688627   -2.0998075 -0.00088997143 -0.035543649 -0.036027988 
  393000   0.09965322 -0.023553403   -2.1214813    -1.972009   -2.0996985 0.00054117381  -0.03605665 -0.035144732 
  394000  0.099493593 -0.023323057   -2.1203707   -1.9711378   -2.0975785 0.00018552578 -0.034557173 -0.035597523 
  395000   0.10141862 -0.026078477   -2.1192909   -1.9671706   -2.1085493 -0.0024891694 -0.037534356 -0.038211906 
  396000  0.099826501 -0.024112015   -2.1208925   -1.9711603   -2.1018782 -0.00066828121 -0.035339723 -0.036328041 
  397000    0.1003984 -0.025102699   -2.1205378   -1.9699477   -2.1060365 -0.0012212608 -0.037023418 -0.037063417 
  398000   0.10025511 -0.023064008   -2.1219977   -1.9716225   -2.0966589 0.0026903415 -0.036246241 -0.035636126 
  399000  0.099873923   -0.0246317   -2.1197136   -1.9699102   -2.1034455 -0.0011671303 -0.035263749 -0.037464221 
  400000   0.10089674  -0.01992417   -2.1199293   -1.9685918   -2.0766062 0.0050133203 -0.032656318 -0.032129513 
  401000    0.1005489  -0.02334685    -2.119361   -1.9685452    -2.095115 0.00074220621 -0.034721189 -0.036061567 
  402000  0.099668034 -0.024463735   -2.1208694   -1.9713748   -2.1039995 -0.0010412374 -0.036139901 -0.036210068 
  403000  0.099698697 -0.023215241   -2.1213754   -1.9718348   -2.0976911 0.00044373454 -0.034896292 -0.035193165 
  404000  0.099380248 -0.023236045   -2.1187483   -1.9696853   -2.0956544 -0.00056617651 -0.034176191 -0.034965768 
  405000  0.099719461 -0.022261719   -2.1220291   -1.9724574   -2.0931443 0.0030395031 -0.034632038 -0.035192623 
  406000  0.099597673 -0.025311776   -2.1198459   -1.9704569   -2.1076791 -0.0025661718 -0.036116272 -0.037252883 
  407000   0.10069852  -0.02230785   -2.1216364   -1.9705961   -2.0915332 0.0017245579 -0.034295467  -0.03435264 
  408000   0.10013627 -0.023195801   -2.1201823   -1.9699854   -2.0957363 -0.00010630198  -0.03453351  -0.03494759 
  409000   0.10040384 -0.023588085   -2.1212286   -1.9706304   -2.0985079 -8.3992251e-06 -0.035042356 -0.035713499 
  410000  0.099803976 -0.024296937   -2.1197903   -1.9700918   -2.1018123 -0.00017599481 -0.035294871 -0.037419944 
  411000   0.10097494 -0.022566703   -2.1213219    -1.969867   -2.0922074 0.00020610154 -0.033911796 -0.033994416 
  412000  0.099742898 -0.022875886   -2.1207358   -1.9711289   -2.0951454 0.00060982933 -0.034224488 -0.035012999 
  413000  0.099518338 -0.024408821   -2.1204791    -1.971209    -2.103536 -0.00082260171 -0.036152478 -0.036251384 
  414000   0.10012152 -0.023757807   -2.1235136   -1.9733388   -2.1021365 0.00055837413 -0.035445924  -0.03638587 
  415000   0.10011549 -0.024193616   -2.1205262   -1.9703605   -2.1015208 -0.0016519357 -0.035897626 -0.035031287 
  416000   0.10010644 -0.023476348   -2.1216876   -1.9715354   -2.0988073 -0.00075136671 -0.035586205 -0.034091472 
  417000  0.099918773 -0.025349691   -2.1205623   -1.9706917   -2.1081194 -0.0023460318 -0.035297767 -0.038405274 
  418000  0.099849432 -0.022843456   -2.1208451   -1.9710784   -2.0949192 8.9551539e-08 -0.034799426 -0.033731031 
  419000    0.1005549 -0.023355841   -2.1213656   -1.9705408   -2.0971593 0.00068371546 -0.034415654 -0.036335585 
  420000  0.099982951 -0.023548132   -2.1206579    -1.970691    -2.098352 -0.00013847439  -0.03561087 -0.034895052 
  421000   0.10072267 -0.023068665   -2.1230317   -1.9719552   -2.0970169 0.0012283087 -0.034997984  -0.03543632 
  422000  0.099697808  -0.02537904   -2.1213225   -1.9717833   -2.1093701 -0.0020970178 -0.037172155 -0.036867947 
  423000   0.10013922 -0.023311141   -2.1219137   -1.9717124   -2.0980886 0.00052729596 -0.035356243 -0.035104475 
  424000   0.10012188 -0.024131926   -2.1202555   -1.9700802   -2.1009061 -0.00031129339 -0.037133881 -0.034950602 
  425000   0.10003755 -0.024115399   -2.1206496   -1.9706008   -2.1013371 -0.00075192443 -0.036229316 -0.035364956 
  426000  0.099352579 -0.024388036   -2.1212905   -1.9722691   -2.1044834 -0.00050924374 -0.035934874 -0.036719991 
  427000  0.099785296 -0.025108747   -2.1188934    -1.969223   -2.1053445 -0.0025865167  -0.03719203 -0.035547693 
  428000  0.099465816 -0.020707047   -2.1222735   -1.9730823   -2.0853409  0.003982349 -0.032163669 -0.033939821 
  429000   0.10092103 -0.026689991   -2.1213944   -1.9700204   -2.1147142 -0.0045935998 -0.038373826 -0.037102548 
  430000   0.10003576 -0.022225329    -2.123318   -1.9732719   -2.0937616 0.0016426822  -0.03435033 -0.033968339 
  431000   0.10023994 -0.027143559   -2.1211712   -1.9708188   -2.1179716 -0.0050384052 -0.038210806 -0.038181466 
  432000  0.099421615 -0.023051224    -2.121416    -1.972291   -2.0972581 0.00031401379 -0.035328749 -0.034138936 
  433000  0.099968802 -0.023828892   -2.1198446   -1.9698989   -2.0990819 -0.0012108364 -0.034819476 -0.035456363 
  434000  0.099469912 -0.024808647   -2.1239743   -1.9747769   -2.1092715 -0.00027514927 -0.037046872 -0.037103921 
  435000   0.10054452 -0.024183445   -2.1201913   -1.9693821   -2.1004873 -0.00098829712 -0.034567839 -0.036994199 
  436000   0.10072665 -0.023058061   -2.1199638   -1.9688813   -2.0938855 -0.0013865696 -0.033568944 -0.034218669 
  437000   0.10064409 -0.025148189   -2.1218055   -1.9708469   -2.1071822 -0.0016860162 -0.037505281 -0.036253269 
  438000  0.099032792 -0.024231023   -2.1203144   -1.9717727   -2.1031358 -0.0010063902 -0.035075878 -0.036610799 
  439000  0.099296182 -0.021239754   -2.1223384   -1.9734016   -2.0885482 0.0034301028 -0.034089356 -0.033060008 
  440000   0.10046699 -0.026544817   -2.1198524   -1.9691595   -2.1130663 -0.0034366368 -0.038398135 -0.037799678 
  441000  0.099807834 -0.022845744   -2.1212699   -1.9715657   -2.0954188 0.00081029786 -0.034299875 -0.035047655 
  442000   0.10003693 -0.024732307   -2.1190281   -1.9689802   -2.1030609 -0.0026927907 -0.035555026 -0.035949105 
  443000   0.10017807 -0.020334071   -2.1192967   -1.9690371   -2.0792738 0.0026660043 -0.031361086 -0.032307131 
  444000  0.099832071 -0.024090329    -2.119162   -1.9694214   -2.1000218 -0.00054683498 -0.036538508 -0.035185645 
  445000  0.099592839  -0.02422956   -2.1204666   -1.9710848     -2.10244 0.00095406856 -0.036160734 -0.037482014 
  446000  0.099416576 -0.022457813   -2.1219477   -1.9728303   -2.0945804 0.00087149503 -0.034115179 -0.034129754 
  447000   0.10004771 -0.023171914   -2.1205508   -1.9704867   -2.0961081 7.710077e-06 -0.034996266 -0.034527186 
  448000   0.10091739 -0.023002203   -2.1213551   -1.9699866    -2.094688 0.00099625181 -0.035171533 -0.034831327 
  449000   0.10059601 -0.024632529    -2.120085   -1.9691985   -2.1027383 -0.00073627666 -0.036353183 -0.036808126 
  450000  0.099933369 -0.025058199   -2.1220524   -1.9721598   -2.1080073 -0.0012381293 -0.035578529  -0.03835794 
  451000   0.10078335 -0.025082819   -2.1214096   -1.9702422   -2.1062231 -0.0010927295 -0.036524906 -0.037630821 
  452000  0.099969477 -0.021326301   -2.1205795   -1.9706328   -2.0862486 0.0014952741 -0.033218906 -0.032255271 
  453000   0.10092756 -0.023211856   -2.1207555   -1.9693717   -2.0952097 2.343483e-05 -0.032937513 -0.036721489 
  454000   0.10075576 -0.022712776   -2.1199822   -1.9688561   -2.0919884 0.0021403268 -0.036301578 -0.033977075 
  455000  0.098329394 -0.021379402    -2.120345   -1.9728583    -2.088762 0.0025605399 -0.032934188 -0.033764557 
  456000  0.099860721 -0.024682434   -2.1205295    -1.970746   -2.1045563 -0.0017074366  -0.03708096 -0.035258906 
  457000   0.10039076 -0.023304087   -2.1216697   -1.9710911   -2.0974291 0.0011641523 -0.035019569 -0.036056844 
  458000   0.10034875 -0.022356465   -2.1192901   -1.9687745   -2.0899751 0.00059064822 -0.033799292 -0.033860751 
  459000   0.10010313 -0.021253681   -2.1211832   -1.9710361   -2.0862582 0.0034713794 -0.033322852 -0.033909571 
  460000  0.099591267 -0.023870176   -2.1193635    -1.969984   -2.0993909 -0.00059746987   -0.0343496 -0.036663458 
  461000  0.099941011 -0.024205608   -2.1204953   -1.9705913   -2.1018166 -0.0010093726 -0.036423438 -0.035184012 
  462000  0.098858498  -0.02288415    -2.119428   -1.9711477    -2.095209 0.00079401656 -0.034376886 -0.035069579 
  463000  0.099179526 -0.025433942   -2.1199929    -1.971231   -2.1091155 -0.0014819219 -0.037126099 -0.037693805 
  464000  0.099785232 -0.023632478   -2.1230921   -1.9734217   -2.1015399 -0.00084081452 -0.035216147 -0.034840473 
  465000  0.099991328  -0.02245186   -2.1195444   -1.9695649   -2.0912827 0.0021707142 -0.034408412 -0.035117882 
  466000   0.10013235 -0.022953711   -2.1218146   -1.9716236   -2.0960621 0.0016249913 -0.034968319 -0.035517806 
  467000  0.099070153 -0.024653335   -2.1201408    -1.971543   -2.1051956 -0.0025839004 -0.036167921 -0.035208184 
  468000   0.09930413 -0.022702217   -2.1217505   -1.9728018   -2.0958768 0.00085253976 -0.035028615 -0.033930576 
  469000   0.10043256  -0.02469349   -2.1217539   -1.9711126   -2.1049829 -0.0015490245   -0.0357703 -0.036761147 
  470000   0.10055561 -0.023646713   -2.1214047   -1.9705788   -2.0987742 -0.0002164222 -0.035299032 -0.035424684 
  471000   0.10026805 -0.020970162   -2.1204124   -1.9700179    -2.083703 0.0034442865 -0.033175435 -0.033179339 
  472000   0.10024754 -0.024511404   -2.1209643   -1.9706005   -2.1034837 -0.0011720924 -0.036803404 -0.035558716 
  473000  0.099338008 -0.025912983    -2.122429   -1.9734294   -2.1139109 -0.0019286923  -0.03797461 -0.037835648 
  474000  0.098876455 -0.024441174   -2.1210042    -1.972697   -2.1051994 -0.0012209075  -0.03635639 -0.035746225 
  475000  0.099928904 -0.024390418   -2.1215161   -1.9716303   -2.1038575 -0.0005888592  -0.03537495 -0.037207445 
  476000   0.10010525 -0.020847075   -2.1205204   -1.9703701   -2.0833879 0.0043503983 -0.032935962  -0.03395566 
  477000  0.099474777 -0.022076609   -2.1201593   -1.9709545    -2.090638 0.0029770932  -0.03407388  -0.03513304 
  478000   0.10000185 -0.023101585   -2.1217854   -1.9717901   -2.0970302 0.00070217689 -0.034578584 -0.035428349 
  479000   0.10010967 -0.023273008   -2.1214641   -1.9713071   -2.0974766 -0.00026554101 -0.035670265 -0.033883216 
  480000   0.10026126 -0.023428354    -2.119853   -1.9694687   -2.0964803 0.00039970177 -0.035394437 -0.035290327 
  481000   0.10003526 -0.022804835   -2.1211963   -1.9711509   -2.0947822 0.0010289424 -0.034192473 -0.035250973 
  482000  0.099277688   -0.0249433   -2.1204719   -1.9715628   -2.1067873 -0.0017138209 -0.037109822 -0.036006256 
  483000  0.099533728 -0.022254253   -2.1204416   -1.9711485    -2.091795 0.0017576319 -0.033851699 -0.034668691 
  484000   0.10015176 -0.023050398   -2.1199207   -1.9697006   -2.0946632 -0.0002358643 -0.034481221 -0.034434109 
  485000   0.10025311 -0.022558413   -2.1208295   -1.9704573   -2.0927528  0.001472686 -0.033953194  -0.03519473 
  486000  0.099945625 -0.020860754   -2.1199586   -1.9700476   -2.0831396 0.0033927358 -0.032433922 -0.033541077 
  487000   0.10030013 -0.022620576   -2.1198774   -1.9694347   -2.0920672 0.00061184844  -0.03424364 -0.034229937 
  488000     0.100713  -0.02396598   -2.1216321   -1.9705701   -2.1004964 -0.0014698455 -0.035104794   -0.0353233 
  489000  0.099800869 -0.024989227   -2.1212204   -1.9715266   -2.1070001 -0.0011889405 -0.037349373 -0.036429366 
  490000  0.099470486 -0.023322371   -2.1212439   -1.9720456   -2.0984827 0.00022933371 -0.034891202 -0.035305244 
  491000  0.098768838 -0.024974039   -2.1198085   -1.9716626   -2.1070538 -0.00061904647 -0.037025892 -0.037277179 
  492000  0.099319255 -0.023711154   -2.1213259   -1.9723545   -2.1008992 0.0011495116 -0.035457835  -0.03682514 
  493000  0.098453689  -0.02400572   -2.1203761   -1.9727029   -2.1028446 -0.00071110927 -0.034826651   -0.0364794 
  494000   0.10009096 -0.023472965    -2.121931   -1.9718021   -2.0990556  0.001688717 -0.036144286 -0.035963325 
  495000   0.10050719 -0.022713235   -2.1212271   -1.9704739   -2.0936086 0.0011646587 -0.033635106 -0.035669258 
  496000  0.099576978 -0.022465602   -2.1195584   -1.9702004   -2.0919927 0.00092221651  -0.03471915 -0.033599873 
  497000  0.098612848 -0.022625066   -2.1213536   -1.9734417   -2.0960985 0.0017950495 -0.034736063 -0.034934184 
  498000  0.099289206  -0.02608386   -2.1217003    -1.972774   -2.1141819 -0.0029480917 -0.037400568 -0.037902921 
  499000  0.099536263 -0.023198486   -2.1217034   -1.9724065    -2.098172 0.00035745373  -0.03471511 -0.035237801 
  500000  0.099471191 -0.022257428   -2.1197326   -1.9705332    -2.091197 0.00083131643 -0.033367989  -0.03423561 
  501000  0.099307129 -0.023080336   -2.1195314   -1.9705782   -2.0957031 0.00066821883 -0.035799805 -0.034109423 
  502000   0.10046181 -0.024099439   -2.1213007   -1.9706155   -2.1012652 -0.00080365249 -0.036295251 -0.035199413 
  503000   0.10083981 -0.023699593   -2.1214114   -1.9701593   -2.0986414 -0.00014068968 -0.034596751 -0.036361337 
  504000  0.099303917 -0.023089837   -2.1206284     -1.97168   -2.0968564 0.0011861205 -0.035401587 -0.035054044 
  505000   0.10018412 -0.026335683   -2.1225816    -1.972313   -2.1150861 -0.0038717985 -0.037977065 -0.037158187 
  506000  0.099341312 -0.023048002   -2.1215739   -1.9725694    -2.097519 0.0016713879 -0.036152195   -0.0346632 
  507000  0.099422038 -0.023110257   -2.1202721   -1.9711465   -2.0964336 6.4633824e-05 -0.035179557  -0.03421585 
  508000  0.099848685 -0.024310324   -2.1206079   -1.9708424   -2.1026354 -0.0002355267  -0.03679987 -0.035895576 
  509000   0.10007258 -0.022237044   -2.1216292   -1.9715278    -2.092081 0.0018153398 -0.034955291  -0.03357118 
  510000   0.10029409 -0.024697279   -2.1207692   -1.9703356   -2.1042264 -0.0017335427 -0.035971674 -0.036386621 
  511000  0.099070527 -0.023074872    -2.121617   -1.9730186    -2.098114 0.0016712222 -0.034319024 -0.036576813 
  512000  0.099740319 -0.025321368   -2.1213054   -1.9717024   -2.1089766 -0.0016433528 -0.036962804 -0.037357948 
  513000   0.09980232 -0.023861358   -2.1213317   -1.9716357   -2.1009948 0.00070420276  -0.03565811 -0.036630167 
  514000   0.10070838   -0.0225283   -2.1220168   -1.9709618    -2.093094 0.00082887425 -0.035135669 -0.033278104 
  515000   0.10025107 -0.023855523   -2.1209847   -1.9706156   -2.0999431 -8.8631671e-05 -0.035300643 -0.036177295 
  516000  0.099634875 -0.024426471    -2.121658   -1.9722132   -2.1046359 -0.00022681242 -0.037150384 -0.035902216 
  517000  0.098944939 -0.025222488   -2.1197133   -1.9713033   -2.1080415 -0.0023636023 -0.036126324 -0.037177539 
  518000   0.10035566 -0.024136785   -2.1225008   -1.9719749   -2.1028271 -0.00093548822 -0.036253469 -0.035221397 
  519000   0.09924662 -0.024345174   -2.1204389   -1.9715764   -2.1035584 -0.00053965231 -0.035786953 -0.036708916 
  520000   0.10000225 -0.022824189   -2.1214968    -1.971501   -2.0952372 0.0023466613 -0.035203453 -0.035615774 
  521000   0.10053231 -0.022489557   -2.1215816   -1.9707907   -2.0927128 0.0018437874 -0.034022801 -0.035289658 
  522000   0.10048282 -0.023588235   -2.1215996   -1.9708829   -2.0987613 -0.00017489636 -0.034423622 -0.036166187 
  523000  0.099284405  -0.02358276   -2.1197785   -1.9708594   -2.0987081 -0.00015000155 -0.034829381 -0.035768896 
  524000   0.10008507 -0.022465647   -2.1199352   -1.9698151   -2.0916076 0.0015872213  -0.03343315 -0.035551014 
  525000  0.099973464 -0.022566069   -2.1200538   -1.9701011    -2.092438 0.0015280518 -0.033454379 -0.035771878 
  526000   0.10052648 -0.022806949   -2.1199159   -1.9691338   -2.0927766 0.00046923457 -0.035129171 -0.033760911 
  527000  0.099330957 -0.022642563   -2.1198871   -1.9708981   -2.0936498 0.00085524592 -0.034735757 -0.034047178 
  528000    0.1005541 -0.025118113   -2.1217478   -1.9709242   -2.1070965 -0.0015256249  -0.03707304 -0.036755675 
  529000  0.099673397 -0.024496275   -2.1212343   -1.9717317   -2.1045328 -0.0011406317 -0.036496854 -0.035851338 
  530000  0.098993913 -0.023676124    -2.121053   -1.9725695   -2.1009244 6.4600209e-05 -0.035896221 -0.035196751 
  531000  0.099947709 -0.024154446   -2.1222792   -1.9723651   -2.1033131 -0.00092148769 -0.034364784 -0.037177065 
  532000  0.099152114 -0.024053893    -2.119833   -1.9711122   -2.1015151 -0.0023515888 -0.034266471  -0.03554362 
  533000    0.1004079 -0.025495081   -2.1216195   -1.9710151   -2.1092311 -0.0032588616 -0.035562642  -0.03766374 
  534000  0.099831147 -0.024171091   -2.1191253    -1.969386   -2.1004243 -0.0017258375  -0.03565562 -0.035131816 
  535000  0.099049593 -0.024632218   -2.1238025   -1.9752355   -2.1087736 -0.00027810724 -0.037687207 -0.035931339 
  536000   0.10005619 -0.025351909   -2.1196818    -1.969605   -2.1070448 -0.0017781963 -0.038250879 -0.036026652 
  537000  0.099773415 -0.021069924   -2.1203098   -1.9706572   -2.0848831 0.0027487741  -0.03226311 -0.033695437 
  538000  0.099434764  -0.02330985   -2.1184034   -1.9692588   -2.0956279 -0.0013348328 -0.034668437 -0.033926279 
  539000  0.099149031 -0.022145123   -2.1215727   -1.9728566   -2.0929115 0.0016019565 -0.033982392 -0.034054933 
  540000    0.1010067 -0.025306321   -2.1177872   -1.9662847   -2.1034773 -0.0028241559 -0.036591888  -0.03650292 
  541000   0.10012686 -0.021405366   -2.1227549   -1.9725722   -2.0886166 0.0028586241 -0.034314552  -0.03276017 
  542000   0.10026853 -0.027522773   -2.1203652   -1.9699699   -2.1191785 -0.0047728896 -0.038891801 -0.038903628 
  543000   0.10014377 -0.019431016    -2.121449   -1.9712409   -2.0765818 0.0044794135 -0.031667637 -0.031104826 
  544000   0.10095988 -0.025833551   -2.1190549   -1.9676227   -2.1076736 -0.0033190242 -0.037010316 -0.037171311 
  545000  0.099444638 -0.022734089   -2.1213957   -1.9722362   -2.0954841 0.0010218818 -0.034812115 -0.034412033 
  546000  0.099373017 -0.021604003   -2.1212247   -1.9721726    -2.089294 0.0029015902 -0.033751319 -0.033962279 
  547000   0.10024537 -0.024866555   -2.1210384   -1.9706778   -2.1054864 -0.0017460637 -0.035942105 -0.036911497 
  548000   0.10052374 -0.023602031   -2.1221562   -1.9713781   -2.0993313 0.0013858232 -0.036624914 -0.035567003 
  549000   0.10064859 -0.025885395   -2.1200208   -1.9690554   -2.1093874 -0.0037022798 -0.037502131 -0.036451773 
  550000  0.098330427 -0.021048818   -2.1223672   -1.9748789   -2.0889904 0.0039603695 -0.032248209 -0.034858615 
  551000   0.10053577 -0.026375511   -2.1194774   -1.9686812   -2.1116702 -0.0046787194 -0.035930705 -0.038517108 
  552000  0.099467875 -0.022520806   -2.1205192   -1.9713249   -2.0934164 0.0021011874 -0.035616031 -0.034047574 
  553000   0.10040197 -0.025179032   -2.1203268   -1.9697314   -2.1062339 -0.0023700248 -0.036639477 -0.036527594 
  554000  0.099187778 -0.021607836    -2.121676   -1.9729018   -2.0900439 0.0024311891 -0.034019658 -0.033235039 
  555000  0.099805409 -0.023417396   -2.1203896    -1.970689   -2.0976412 0.0001338622 -0.035218957 -0.035167093 
  556000   0.10034776 -0.022799953   -2.1204167   -1.9699026   -2.0935075 0.00076674779 -0.034583176 -0.034583432 
  557000   0.10030556 -0.020344157   -2.1201897   -1.9697389   -2.0800303 0.0046745386 -0.033434054 -0.032272957 
  558000  0.099922195 -0.025248709   -2.1196048    -1.969729   -2.1066093 -0.0018417603 -0.036844528 -0.037059839 
  559000  0.099900861  -0.02311686   -2.1219086   -1.9720648   -2.0973878 0.00076432359 -0.034080648 -0.036034257 
  560000   0.10006932  -0.02459503   -2.1199585   -1.9698621   -2.1031986 -0.0012324985 -0.036350011 -0.036202581 
  561000    0.1010822 -0.022719472   -2.1215125   -1.9698968   -2.0930654 0.0012096315 -0.034235698 -0.035132351 
  562000   0.10023227 -0.022038586    -2.120908   -1.9705671   -2.0900444 0.0013097677 -0.034811566 -0.032613959 
  563000  0.099681434 -0.023192125   -2.1211301   -1.9716155   -2.0973464 0.00093523852 -0.035198725 -0.035312889 
  564000  0.099442159  -0.02493108    -2.120993   -1.9718372   -2.1069955 -0.0014804685 -0.036539033  -0.03677374 
  565000  0.099792959  -0.02435971    -2.119905   -1.9702231   -2.1022838 -0.0017640538 -0.036124975   -0.0351901 
  566000  0.099970846  -0.02183455   -2.1204272   -1.9704784   -2.0888496 0.0034301084 -0.034636886 -0.034296874 
  567000   0.10077928 -0.023781639   -2.1189945   -1.9678332   -2.0967601 -0.0017397969 -0.035028119    -0.034577 
  568000   0.10094596 -0.021389224   -2.1223996   -1.9709882   -2.0869452 0.0044940541 -0.033701765 -0.034959962 
  569000   0.09967563  -0.02290838   -2.1195962   -1.9700902   -2.0942829 -0.00010291088 -0.033897024 -0.034725204 
  570000   0.10111761 -0.023043556   -2.1212372   -1.9695684   -2.0944939 0.00037306771 -0.034857574 -0.034646163 
  571000   0.10068022  -0.02201204    -2.119882   -1.9688693   -2.0882027 0.00058012932 -0.032821217 -0.033795032 
  572000   0.10049105 -0.023087781   -2.1191915   -1.9684625   -2.0936278 0.00011884886   -0.0354525 -0.033929691 
  573000  0.099694136 -0.022430178   -2.1212368    -1.971703   -2.0933033 -8.3354118e-05 -0.033083966 -0.034123214 
  574000   0.09989908 -0.024165935   -2.1199918   -1.9701507    -2.101161 -0.0013204005 -0.034652209 -0.036525194 
  575000   0.10062396 -0.021998855   -2.1211968   -1.9702685   -2.0895304 0.0013659793 -0.033841755 -0.033520791 
  576000   0.10009872  -0.02604009   -2.1205474   -1.9704069   -2.1115775 -0.0039057419  -0.03685367 -0.037360859 
  577000  0.099237186 -0.024458774   -2.1216454   -1.9727971   -2.1053949 -0.0013427867 -0.035448265  -0.03658527 
  578000   0.10025109 -0.022242781   -2.1215521    -1.971183   -2.0917673 0.00075772273 -0.032990309 -0.034495758 
  579000    0.1007285 -0.021778462   -2.1214721   -1.9703869    -2.088454 0.0021079742 -0.034549341 -0.032894019 
  580000   0.10143767 -0.023081126    -2.121382   -1.9692331   -2.0943623 -0.00055940194 -0.033965434 -0.034718542 
  581000   0.10036855 -0.023331885   -2.1211833    -1.970638   -2.0971266 0.00094329812 -0.035120785 -0.035818169 
  582000  0.099171183 -0.025723455   -2.1203567   -1.9716074   -2.1110614 -0.0035929555 -0.037113908   -0.0364635 
  583000  0.099465107 -0.023669261   -2.1204237   -1.9712335   -2.0995512 0.00040539219 -0.035748796  -0.03566438 
  584000   0.10033619 -0.020844265   -2.1204726   -1.9699758   -2.0829784 0.0036693102 -0.033348041 -0.032854063 
  585000   0.10067552 -0.022006754   -2.1191726   -1.9681669   -2.0874716 0.0025630562  -0.03450243 -0.034080887 
  586000   0.10076261 -0.023631271   -2.1215248   -1.9703885   -2.0985002 0.00061094472 -0.036248776 -0.035255981 
  587000   0.10049791 -0.025837554   -2.1197072   -1.9689679   -2.1090405 -0.0033516127 -0.036622532 -0.037538518 
  588000  0.099291343 -0.023026284   -2.1200132   -1.9710836   -2.0959155  0.001024242 -0.034141305 -0.035961789 
  589000   0.10032388 -0.025168421   -2.1201402   -1.9696619    -2.106107 -0.0027949034 -0.036327697 -0.036382661 
  590000  0.099428368 -0.023712082   -2.1213336   -1.9721985   -2.1007483 -0.00096610967 -0.034676203 -0.035493934 
  591000  0.099971479 -0.023584988   -2.1204078   -1.9704581   -2.0983189 0.00061791816  -0.03554112 -0.035831763 
  592000   0.10164087 -0.023572431   -2.1232727    -1.970819   -2.0986117 0.00085618119 -0.035539276 -0.036034198 
  593000  0.099326808 -0.023206449   -2.1195229   -1.9705401   -2.0963488 0.00052437253 -0.034411704 -0.035732014 
  594000  0.099499525 -0.023464638   -2.1199986   -1.9707567   -2.0979651 -7.9938667e-05  -0.03596617 -0.034347805 
  595000    0.1000781  -0.02283144   -2.1207548   -1.9706451   -2.0944207 0.0020387153 -0.036131215 -0.034401821 
  596000   0.10024416  -0.02289888   -2.1191073   -1.9687486   -2.0928898 0.00030406754  -0.03407741 -0.034923299 
  597000  0.099707508 -0.019282534    -2.121231   -1.9716772   -2.0762132 0.0050064814 -0.032113406 -0.030740678 
  598000   0.10011735 -0.025402795   -2.1185587   -1.9683902   -2.1061058 -0.0026144058 -0.037033697 -0.036560281 
  599000   0.09999924 -0.021009942   -2.1210994    -1.971108   -2.0850088 0.0022064088  -0.03240777 -0.032828465 
  600000  0.099728467  -0.02611032   -2.1199592    -1.970374   -2.1119253 -0.0022711209 -0.037736783 -0.038323055 
  601000  0.099398101 -0.025589673   -2.1225847    -1.973495   -2.1122237 -0.0025256564 -0.036662105 -0.037581258 
  602000   0.10064655 -0.022522678   -2.1214215   -1.9704592    -2.092561 0.00062737475 -0.033886879 -0.034308529 
  603000   0.10104524 -0.023486629    -2.118874   -1.9673137   -2.0946412 0.00019118928 -0.034565576 -0.036085501 
  604000   0.10139822 -0.022534835    -2.122212   -1.9701223   -2.0922899  0.002157887 -0.035165183  -0.03459721 
  605000   0.10047756 -0.025887249   -2.1208762   -1.9701674   -2.1105094 -0.0028055763  -0.03812185 -0.036734322 
  606000  0.099531663 -0.022271548   -2.1217442   -1.9724542   -2.0931944 0.0010636048 -0.033612771 -0.034265478 
  607000  0.099461614   -0.0255229    -2.121665     -1.97248   -2.1108467 -0.0030833722 -0.036920403 -0.036564924 
  608000  0.099368264 -0.024488078   -2.1212994   -1.9722544   -2.1050111 -0.0018000488 -0.036320313 -0.035343873 
  609000  0.099912852 -0.024951855   -2.1210732   -1.9712114   -2.1064824 -0.0020381585 -0.035795436 -0.037021969 
  610000   0.10080121 -0.024562499   -2.1213204   -1.9701262   -2.1032863 -0.0015594383 -0.036524028 -0.035604031 
  611000   0.10090615 -0.022145239   -2.1213587   -1.9700071   -2.0900626 0.0013425689 -0.034146744 -0.033631542 
  612000   0.10106721 -0.022234517    -2.120199   -1.9686057   -2.0891452 0.00064021174 -0.032323837 -0.035019925 
  613000   0.09981396 -0.021848986   -2.1214767   -1.9717632   -2.0902127 0.0013134707  -0.03351328 -0.033347149 
  614000   0.09908539 -0.028016194   -2.1204025   -1.9717818   -2.1236654 -0.0063536729 -0.038531031 -0.039163878 
  615000  0.099877476 -0.023552132   -2.1229001   -1.9730913    -2.100774 0.00039361851 -0.034932287 -0.036117727 
  616000   0.10010957 -0.024334176   -2.1195454   -1.9693885   -2.1013109 -0.00017697258 -0.036330436 -0.036495121 
  617000   0.10109574 -0.023245054   -2.1221452   -1.9705091    -2.096527 0.0014373631 -0.035914167 -0.035258358 
  618000   0.10040454  -0.02158403   -2.1204088   -1.9698095   -2.0868226 0.0021464208 -0.031308181  -0.03559033 
  619000  0.099571652 -0.024658603   -2.1198431   -1.9704931   -2.1041743 -0.001509225 -0.035233167 -0.037233417 
  620000  0.099073533 -0.022080569   -2.1214046   -1.9728017   -2.0925066 0.00085569756 -0.034902022 -0.032195383 
  621000  0.099760708 -0.027962225   -2.1205684   -1.9709349   -2.1225259 -0.0053456997 -0.039936552 -0.038604423 
  622000   0.10036652 -0.021828994   -2.1227952   -1.9722529    -2.090594 0.0017286807 -0.033329482 -0.033886181 
  623000   0.10093464 -0.021806125    -2.120902   -1.9695076   -2.0877247 0.00096349542 -0.033236255 -0.033145615 
  624000   0.10057051 -0.023166747   -2.1203889   -1.9695407   -2.0951341 0.00026907431 -0.034408762 -0.035360554 
  625000   0.10017955  -0.02215693   -2.1227163   -1.9724545   -2.0925733 0.0024630901 -0.034960133 -0.033973746 
  626000  0.099595035 -0.026293071   -2.1193744   -1.9699893   -2.1125314 -0.0042791297 -0.038513151 -0.036086932 
  627000  0.099361739 -0.021381607   -2.1224397   -1.9734045   -2.0893202 0.0023594378 -0.033415008 -0.033089251 
  628000   0.10029465 -0.024371392   -2.1203269   -1.9698924   -2.1020165 0.00010485939 -0.036583987 -0.036635048 
  629000  0.099635259 -0.023522871   -2.1213936   -1.9719482   -2.0994722 0.0012233489 -0.035666543 -0.036125419 
  630000   0.09892147 -0.024427271   -2.1215175   -1.9731427   -2.1055698 -0.00091342912 -0.036421709 -0.035946674 
  631000  0.099261181 -0.025325344   -2.1207518   -1.9718675   -2.1091632 -0.0018002341 -0.036914224 -0.037261574 
  632000   0.10026805 -0.023111377   -2.1212845     -1.97089   -2.0961832 0.00079382728 -0.036195874 -0.033932086 
  633000   0.10074694    -0.023243   -2.1209052   -1.9697923   -2.0957991 0.00073768824 -0.035286463 -0.035180224 
  634000  0.099869564  -0.02304119   -2.1207483   -1.9709514   -2.0958641 0.00030500932 -0.035220221 -0.034208359 
  635000  0.099732628 -0.023907176   -2.1199542   -1.9703627   -2.0999702 -0.00044990908 -0.035407211 -0.035864407 
  636000  0.099505854 -0.021448479   -2.1220662   -1.9728148    -2.089093 0.0035231512 -0.033831953 -0.034036636 
  637000  0.099698089 -0.023862766   -2.1208918   -1.9713521   -2.1007188 -0.00068070355 -0.035971856 -0.034935738 
  638000  0.099684041 -0.024538069   -2.1205317   -1.9710131   -2.1040408 -0.0011606101 -0.035738307 -0.036715289 
  639000   0.10033667 -0.023559462   -2.1206545    -1.970157   -2.0978794 -0.00035947573 -0.035437438 -0.034881472 
  640000   0.10102289 -0.024900955   -2.1200908    -1.968564    -2.103559 -0.0016204451 -0.036200554 -0.036881866 
  641000  0.099424666 -0.022079167   -2.1223485    -1.973219   -2.0929163 0.0026471899 -0.034738203 -0.034146489 
  642000  0.099889864 -0.025472003   -2.1197989   -1.9699716   -2.1080624 -0.0032133444  -0.03716971 -0.036032953 
  643000   0.09964802 -0.020469417   -2.1228075    -1.973343   -2.0843134 0.0049925094 -0.031939341 -0.034461421 
  644000   0.10113463 -0.027086789   -2.1207155   -1.9690212   -2.1158662 -0.0057057312 -0.036936462 -0.038618174 
  645000   0.10036422 -0.019571695   -2.1212983   -1.9707595   -2.0768631 0.0043998161 -0.031753601 -0.031361301 
  646000   0.10069252 -0.023077103   -2.1214214   -1.9703902   -2.0954976 -0.0011168979  -0.03380216  -0.03431225 
  647000  0.099603344 -0.025298896   -2.1202938   -1.9708963   -2.1080486 -0.0019279509 -0.037448572 -0.036520166 
  648000   0.10018026 -0.021342497   -2.1231317   -1.9728688   -2.0885724 0.0035874927 -0.034393463 -0.033221521 
  649000  0.099783336 -0.026527818   -2.1179088   -1.9682413    -2.112056 -0.0043921451 -0.037387263 -0.037804045 
  650000    0.0995309 -0.020294709   -2.1224901   -1.9732012   -2.0832245 0.0049421961 -0.031743013 -0.034083312 
  651000   0.10152181 -0.026723522    -2.119373   -1.9670979   -2.1119736 -0.0048303775 -0.037811663 -0.037528526 
  652000  0.098945789 -0.022829211    -2.121188   -1.9727768   -2.0965403 0.0015738532 -0.034921378 -0.035140107 
  653000  0.099065222 -0.024868916   -2.1201247   -1.9715343   -2.1063556 -0.00071899615 -0.036520727 -0.037367023 
  654000   0.10013703 -0.024660946   -2.1190726   -1.9688745   -2.1025684 -0.0017335146 -0.035954419 -0.036294904 
  655000   0.10119479 -0.020027846   -2.1203321   -1.9685475    -2.077124 0.0039672417 -0.032008746 -0.032042033 
  656000   0.10054128 -0.023838568   -2.1196437   -1.9688393   -2.0980749 -0.0017799378 -0.035388291 -0.034347474 
  657000   0.10091951 -0.024726107   -2.1222515   -1.9708797   -2.1049269 -0.0019749147  -0.03532577 -0.036877638 
  658000   0.10032131 -0.026286268   -2.1210456   -1.9705711   -2.1130763 -0.0041930001 -0.036968851 -0.037696953 
  659000     0.100247 -0.023309029   -2.1215285   -1.9711655   -2.0975302 0.00034365122 -0.034359785 -0.035910953 
  660000   0.09977612 -0.023953319   -2.1212818   -1.9716251   -2.1014827 -0.00052437571 -0.035880507 -0.035455073 
  661000  0.099102303 -0.025022309   -2.1208918   -1.9722458   -2.1078987 -0.0024507719 -0.036186782 -0.036429374 
  662000  0.098729282 -0.023376348   -2.1216348   -1.9735483    -2.100278 0.0020691112 -0.036730002 -0.035468152 
  663000   0.10059932 -0.025523101   -2.1205183   -1.9696269   -2.1079947 -0.0016180677 -0.038065859 -0.036885378 
  664000   0.10016201 -0.022766109   -2.1216805    -1.971445   -2.0948664 0.00087903136  -0.03410691 -0.035070448 
  665000   0.10035809  -0.02460093   -2.1197142   -1.9691845    -2.102553 -0.0016479054 -0.035233631 -0.036921254 
  666000  0.099788965  -0.02063892   -2.1206132   -1.9709372   -2.0828265  0.003371259 -0.032616417 -0.032671603 
  667000   0.10059829 -0.024549695   -2.1199303   -1.9690404   -2.1021312 -0.0019541669 -0.036069596 -0.035625322 
  668000  0.099354088 -0.021998674   -2.1207124   -1.9716888   -2.0909497 0.0030788358 -0.035146054 -0.033928802 
  669000   0.10060436 -0.024949752   -2.1201772   -1.9692782   -2.1045378 -0.0018519721 -0.036403764  -0.03659352 
  670000   0.10095742 -0.021615639   -2.1200323   -1.9686037   -2.0857881 0.0016708101 -0.034221165 -0.032296561 
  671000   0.10089395 -0.023388791   -2.1197335   -1.9684001   -2.0951973 0.00015700154 -0.033992472 -0.036330902 
  672000   0.09981796  -0.02429983   -2.1204591   -1.9707396   -2.1024758 -0.00019924072 -0.036167107 -0.036533143 
  673000  0.099457387 -0.023067001   -2.1203256    -1.971147   -2.0961996 -0.0010697919  -0.03257064  -0.03556057 
  674000  0.099277653 -0.024109214   -2.1194537   -1.9705447   -2.1012474 -0.00082677215 -0.035507542 -0.035993328 
  675000   0.10010657 -0.020322281   -2.1196024     -1.96945   -2.0796228 0.0044844286 -0.031790992  -0.03366028 
  676000   0.10065055 -0.022133884   -2.1198475   -1.9688792   -2.0888732 0.0010921922 -0.033268412 -0.034225432 
  677000   0.10056704 -0.024006474   -2.1209084   -1.9700654   -2.1002112 -0.00048600255 -0.035974282 -0.035559138 
  678000   0.10005876 -0.024085451   -2.1209514   -1.9708708   -2.1014447 4.2805634e-05 -0.035783312 -0.036515848 
  679000   0.10037739 -0.024040053   -2.1203117   -1.9697531   -2.1000809 -0.00018763949 -0.036904285 -0.035028233 
  680000   0.10018195 -0.023062319   -2.1230369   -1.9727715   -2.0977987 0.0023616307 -0.037926627 -0.033621961 
  681000  0.098371406 -0.026396522   -2.1202768   -1.9727271     -2.11583 -0.0033927313 -0.037923167 -0.037873667 
  682000  0.099589152  -0.02518607   -2.1218602   -1.9724839   -2.1090246 -0.0017999853 -0.036221955 -0.037536271 
  683000    0.1008554 -0.023095891   -2.1215761   -1.9703006   -2.0955098 -0.0002646633  -0.03555634 -0.033466669 
  684000   0.10104468 -0.025275597   -2.1221295     -1.97057   -2.1075961 -0.0022624938 -0.036493489 -0.037070808 
  685000   0.10052839 -0.022575848   -2.1209429   -1.9701579   -2.0925478 0.00014857137 -0.034576568 -0.033299547 
  686000   0.10115448 -0.023921726   -2.1207735   -1.9690494   -2.0987357 -0.00074753839 -0.035808093 -0.035209545 
[...]
  842000  0.099693649 -0.024075589   -2.1217031   -1.9721701   -2.1026906 0.00020809892 -0.035713766 -0.036721101 
  843000   0.10107337 -0.024044319   -2.1192102   -1.9676078   -2.0979587 -0.00029786868 -0.035249869 -0.036585218 
  844000    0.1000509 -0.022324194   -2.1211463   -1.9710774   -2.0921031 0.0024762772 -0.034514909 -0.034933949 
  845000   0.10050432 -0.025177984   -2.1192286   -1.9684797   -2.1049766 -0.00093168366 -0.036909679 -0.037692589 
  846000   0.10037784 -0.022139779   -2.1205762    -1.970017   -2.0900429 0.0011418189 -0.032996017  -0.03456514 
  847000   0.10030079 -0.022921456    -2.119725   -1.9692813   -2.0935449 0.0018069753 -0.034911992  -0.03565935 
  848000    0.1005089 -0.024023597   -2.1222407   -1.9714849   -2.1017235 -0.00039209204 -0.035817477 -0.035861221 
  849000   0.09958469 -0.026544799   -2.1210806   -1.9717111   -2.1156178 -0.0029946158 -0.038255949 -0.038383831 
  850000  0.099780645 -0.022567269   -2.1218484   -1.9721849   -2.0945284 0.0018550598 -0.034844317  -0.03471255 
  851000   0.10049879 -0.026961347   -2.1213395   -1.9705989   -2.1167639 -0.0039589783 -0.037983447 -0.038941615 
  852000   0.10012388 -0.021918082   -2.1207965   -1.9706182   -2.0894423  0.001700902 -0.034225691 -0.033229456 
  853000    0.1009554 -0.022540796   -2.1197609   -1.9683354   -2.0905353 0.0015220902 -0.034218498 -0.034925981 
  854000  0.099878461 -0.022571644   -2.1211648   -1.9713546   -2.0937218 -0.00046639133 -0.034526844 -0.032721696 
  855000   0.09984801 -0.024803897   -2.1210216   -1.9712571   -2.1057259 -0.0014876707 -0.036412634 -0.036511388 
  856000  0.098963433 -0.026463113   -2.1224662   -1.9740285   -2.1174924 -0.0035388853 -0.038472603 -0.037377851 
  857000  0.099905617 -0.025496998   -2.1222776   -1.9724267    -2.110653 -0.0030033162 -0.037051271 -0.036436408 
  858000   0.09930981 -0.022648648   -2.1201939   -1.9712366   -2.0940212 0.0010459185 -0.033965787 -0.035026077 
  859000   0.10016908 -0.025749046   -2.1201498   -1.9699037   -2.1094965 -0.0025909112 -0.036786811 -0.037869415 
  860000  0.099959575 -0.022001948   -2.1199942   -1.9700623    -2.089341  0.001150394 -0.033413037 -0.033743201 
  861000   0.10091896 -0.023955626   -2.1199623   -1.9685914   -2.0984615 -0.00084600677 -0.035163454 -0.035857418 
  862000   0.10116755 -0.022595281   -2.1206939   -1.9689502   -2.0914455 -0.0002033687  -0.03283321 -0.034749264 
  863000   0.10077604 -0.024086013   -2.1203842   -1.9692277   -2.0998047 -0.0010610145 -0.035181602 -0.036015423 
  864000  0.099410101 -0.025346766   -2.1196746   -1.9705669   -2.1079788 -0.0032416287 -0.037077817 -0.035720851 
  865000  0.099689589 -0.023118827   -2.1205459    -1.971019   -2.0963526 -0.00074347726 -0.034783496 -0.033829506 
  866000   0.10025738 -0.023838575   -2.1188519   -1.9684734   -2.0977089 -0.0020928884 -0.034804401 -0.034618436 
  867000   0.10084732 -0.021900995   -2.1200235   -1.9687601   -2.0874915 0.0031537732 -0.033870072 -0.034986687 
  868000   0.10074316 -0.023061933   -2.1203565   -1.9692494   -2.0942745 -0.00015735399 -0.034527678 -0.034500765 
  869000   0.10058712 -0.024498204    -2.121813   -1.9709399   -2.1037514 -0.00053534209 -0.037579609 -0.035379662 
  870000   0.10034304 -0.024071896   -2.1215149   -1.9710079   -2.1015083 0.00027493032 -0.036153166 -0.036337452 
  871000  0.099386304 -0.025495662   -2.1212491   -1.9721771   -2.1103962 -0.0033573763 -0.035604681 -0.037524928 
  872000  0.099701907  -0.02191562   -2.1218019   -1.9722566   -2.0910672 0.0022774661 -0.034152298 -0.033872028 
  873000   0.10038297  -0.02330511   -2.1204486   -1.9698817   -2.0962252 0.00096532563 -0.035148428 -0.035732227 
  874000   0.10010977 -0.022056902   -2.1201388   -1.9699816   -2.0895582 0.0023049807 -0.034124459 -0.034351226 
  875000  0.099116808 -0.025726864   -2.1212885   -1.9726207   -2.1120932 -0.0021537859 -0.037711483 -0.037315323 
  876000   0.09900779 -0.024609901   -2.1210972    -1.972593   -2.1060101 -0.00062154587 -0.037146848 -0.036061311 
  877000   0.10022917 -0.021995403   -2.1206627   -1.9703265   -2.0895697 0.0018623413 -0.033851337 -0.033997213 
  878000   0.10058063 -0.023451336   -2.1202201   -1.9693567   -2.0964929 -0.00013369412 -0.034441185 -0.035779129 
  879000   0.10024588 -0.024242012   -2.1187331   -1.9683717   -2.0997944 -0.0010607523 -0.036110762 -0.035554521 
  880000   0.10062107 -0.024055145   -2.1214235   -1.9704995   -2.1009091 -0.00055854953 -0.035843491 -0.035763395 
  881000   0.10036252 -0.022243775   -2.1208282   -1.9702919   -2.0908816 0.0019504453 -0.034487233 -0.034194536 
  882000  0.099053422  -0.02062105   -2.1200468   -1.9714741   -2.0832666 0.0029958277 -0.032308409 -0.032550568 
  883000  0.099329772 -0.024472651   -2.1212997   -1.9723124   -2.1049855 -0.00012368587   -0.0355126 -0.037781668 
  884000  0.099372245 -0.025474983   -2.1227994   -1.9737485   -2.1118555 -0.0006245565 -0.036661781 -0.039138611 
  885000   0.10066009  -0.02315851   -2.1213805   -1.9703979   -2.0959466 0.0011942068 -0.035519157  -0.03515058 
  886000   0.10069056 -0.021110915   -2.1200344   -1.9690061   -2.0834542 0.0035195312 -0.032767113 -0.034085164 
  887000   0.10016946 -0.023519811   -2.1198211   -1.9695744   -2.0970818 -0.0012399172  -0.03460561 -0.034713906 
  888000  0.099963268 -0.023363291   -2.1212697   -1.9713323   -2.0979912 -0.00011413623 -0.034415866 -0.035559872 
  889000  0.099767864 -0.021739254   -2.1191082   -1.9694639   -2.0873185 0.0020038646 -0.034421305 -0.032800323 
  890000    0.1004645   -0.0204607   -2.1217261   -1.9710369     -2.08196 0.0033294006 -0.033083916 -0.031627586 
  891000   0.10007782 -0.022038867    -2.120449   -1.9703398   -2.0898187 0.0022693939 -0.033553269 -0.034832725 
  892000   0.10005505 -0.022548422   -2.1214379   -1.9713628   -2.0936041 0.0023059164   -0.0357925 -0.034158683 
  893000   0.10099817 -0.023655911   -2.1189807    -1.967491   -2.0957363 -0.00039534577 -0.036249356 -0.034323032 
  894000  0.099311009 -0.022618837   -2.1215514   -1.9725923   -2.0952153 0.00098681123  -0.03495229 -0.033891032 
  895000  0.099885584 -0.025848179   -2.1200235   -1.9702027   -2.1103328 -0.0026390003 -0.036826717  -0.03807882 
  896000   0.10009247 -0.020180941   -2.1206038   -1.9704726   -2.0798791 0.0034750522 -0.030917013 -0.033100863 
  897000  0.099221699 -0.022242628   -2.1190563   -1.9702311   -2.0908146 0.0011113599 -0.033527272 -0.034311972 
  898000  0.099859647 -0.023514833    -2.121838    -1.972056   -2.0995365 0.0010588144 -0.036132517 -0.035470796 
  899000  0.099868374 -0.025099579    -2.120743   -1.9709479   -2.1070197 -0.0010923113 -0.037060974 -0.037145452 
  900000  0.099796831 -0.025286235    -2.121728   -1.9720403    -2.109124 -0.0011236852 -0.038041279 -0.036693743 
  901000  0.099774465 -0.023943889    -2.120624   -1.9709698   -2.1007763 0.00014639969  -0.03588887 -0.036089197 
  902000  0.099800904 -0.022310695   -2.1199591   -1.9702652   -2.0912177 0.0029594732 -0.034715137 -0.035176422 
  903000  0.099969995 -0.022419449   -2.1191546   -1.9692071   -2.0907492 0.0019157121 -0.034894611 -0.034279449 
  904000   0.10013413 -0.022593372   -2.1189212   -1.9687275   -2.0912124 0.0015590543 -0.033542549 -0.035796622 
  905000   0.10069196 -0.022028295   -2.1198129   -1.9687826   -2.0882041 0.0022770005 -0.034085123 -0.034276763 
  906000  0.099988899 -0.024620098   -2.1204233   -1.9704475   -2.1039199 -0.001475005 -0.036421039 -0.035964251 
  907000  0.099828142 -0.024307843   -2.1206217   -1.9708869   -2.1026665 6.8475351e-05  -0.03587014 -0.037121865 
  908000  0.099319906 -0.023819738   -2.1198867   -1.9709143   -2.1000478 0.0011397757 -0.036686969  -0.03591202 
  909000   0.10048023 -0.022975066   -2.1199033   -1.9691904   -2.0937447 -7.3110042e-05 -0.034572161 -0.034279929 
  910000   0.10038415 -0.022510581   -2.1194404   -1.9688717   -2.0909078 0.0032117907  -0.03630455 -0.034438984 
  911000   0.10135544 -0.024789272   -2.1218189   -1.9697933   -2.1041829 -0.00063112679 -0.036644446 -0.037092244 
  912000   0.10043928 -0.023434188   -2.1214323   -1.9707809   -2.0978242 -5.8723156e-05 -0.034624749 -0.035619093 
  913000  0.098746794 -0.024226527   -2.1201898    -1.972077   -2.1034158 -0.00098340714 -0.035576937 -0.036119237 
  914000  0.099848105 -0.025281065   -2.1207499   -1.9709853   -2.1080409 -0.0011303902 -0.037666647 -0.037046157 
  915000   0.10063198 -0.023984364   -2.1203875    -1.969447    -2.099473 -0.00021732172 -0.035691403 -0.036044369 
  916000   0.10054164 -0.023240846   -2.1199916   -1.9691867   -2.0951818 0.0017950533 -0.036137721 -0.035379871 
  917000  0.099759753 -0.021890619    -2.119535   -1.9699028    -2.088578 0.0018151713 -0.034035209 -0.033451819 
  918000   0.10085535 -0.023763816   -2.1191094    -1.967834   -2.0966642 0.0004465156 -0.035895734 -0.035842229 
  919000   0.10025688 -0.022021165   -2.1207409   -1.9703632    -2.089746 0.0028034947 -0.033516775 -0.035350216 
  920000  0.099529226 -0.024352752   -2.1205483   -1.9712619    -2.103285 -0.0005613608 -0.036191897 -0.036304999 
  921000   0.10089842 -0.025267073   -2.1206766   -1.9693365   -2.1063164 -0.00084681932 -0.037393381 -0.037561019 
  922000   0.10182938 -0.020969372   -2.1194263   -1.9666899   -2.0803707  0.002783241 -0.032496017 -0.033195341 
  923000   0.10046361 -0.024276315   -2.1200076   -1.9693198   -2.1009284 -0.00050024775 -0.035763882 -0.036564816 
  924000   0.10009175 -0.023312628   -2.1206851    -1.970555   -2.0969392  0.002058357 -0.035601556 -0.036394686 
  925000   0.10040068 -0.025221049   -2.1221797   -1.9715862   -2.1083165  -0.00127574 -0.036553936 -0.037833472 
  926000  0.099911548 -0.026670522   -2.1203278    -1.970468   -2.1150563 -0.0044155132 -0.037130538 -0.038465516 
  927000   0.10065837 -0.025231553   -2.1226824   -1.9717024   -2.1084896 -0.00068090582 -0.037076451 -0.037937302 
  928000  0.098843919 -0.025250339   -2.1189557   -1.9706973   -2.1075864 -0.0012742018 -0.036708861 -0.037767954 
  929000  0.099967995 -0.022214037   -2.1219261   -1.9719816   -2.0924101 0.0039948572 -0.035429842 -0.035207127 
  930000   0.10014886 -0.024655118   -2.1194443   -1.9692285   -2.1028908 -0.0020532144 -0.036248611 -0.035663529 
  931000   0.10050596 -0.023884425   -2.1207549   -1.9700035   -2.0994876 -0.00068698309 -0.035416225 -0.035550068 
  932000  0.099431614 -0.024679329   -2.1194805   -1.9703406   -2.1041341 -0.0020146724 -0.035950963 -0.036072353 
  933000   0.10051341 -0.022782496   -2.1221187   -1.9713561   -2.0948664 0.0013235583 -0.035488074 -0.034182971 
  934000   0.10125686  -0.02368751   -2.1214467    -1.969569   -2.0979856 -0.00031430368 -0.034901998 -0.035846229 
  935000   0.10093043 -0.023007387   -2.1217642   -1.9703761   -2.0951056  0.001223394 -0.035714444  -0.03453111 
  936000   0.10039753 -0.025193312   -2.1217702   -1.9711814   -2.1077614 -0.0019141697 -0.037492643 -0.036173122 
  937000  0.099535545 -0.025674334   -2.1207408   -1.9714449   -2.1106327 -0.0023468024 -0.037500254 -0.037175946 
  938000   0.10007575  -0.02170297   -2.1215111    -1.971405   -2.0890628 0.00094367323 -0.032883789 -0.033168794 
  939000   0.10084037 -0.025639151   -2.1199196   -1.9686666   -2.1076635 -0.002945059 -0.036975961 -0.036996434 
  940000   0.10018102 -0.022528358   -2.1219594   -1.9716954   -2.0938279 0.0023737482 -0.034424063 -0.035534758 
  941000   0.10045812 -0.023644832   -2.1205209   -1.9698413   -2.0980265 -0.0017685576 -0.035130637   -0.0340353 
  942000  0.099914557 -0.024271702   -2.1210896   -1.9712253    -2.102809 -0.0013685961 -0.035776243 -0.035670266 
  943000   0.10086027 -0.024403319   -2.1193816   -1.9680987   -2.1003959 -0.00099618098 -0.036630318 -0.035583459 
  944000   0.10036396  -0.02376023   -2.1219211   -1.9713827   -2.1001936 0.0012230621 -0.035564538 -0.036939215 
  945000   0.10064511 -0.024180303   -2.1198639   -1.9689038    -2.099992 -0.0026380325 -0.036581931 -0.033320945 
  946000   0.10089813 -0.022503717   -2.1193988   -1.9680592   -2.0900581 0.0018710034 -0.035129044  -0.03425311 
  947000   0.10069803 -0.021461302   -2.1203683   -1.9693288   -2.0856765 0.0027986231 -0.033443285 -0.033739243 
  948000   0.10059956 -0.026541445    -2.120098   -1.9692062   -2.1130947 -0.002723953 -0.038810621  -0.03808976 
  949000  0.099369402 -0.023963682   -2.1218201   -1.9727734   -2.1026872 0.00059050965  -0.03588336 -0.036598196 
  950000   0.10045713  -0.02581344   -2.1196404   -1.9689622    -2.108904 -0.0023482609 -0.036619271 -0.038472786 
  951000   0.10004074 -0.022854265   -2.1209238   -1.9708702   -2.0947696 0.0014609495 -0.034074279 -0.035949465 
  952000   0.10024744 -0.023987415   -2.1207717    -1.970408   -2.1004505 0.0014962285 -0.037463386 -0.035995088 
  953000  0.099519658 -0.023091284   -2.1214358   -1.9721638   -2.0973481 0.0018515021 -0.035462263 -0.035663092 
  954000    0.0992016 -0.025352085   -2.1222165   -1.9734216   -2.1108623 -0.0014109239 -0.037748154 -0.036897176 
  955000  0.099368353 -0.024534859   -2.1213297   -1.9722846   -2.1052949 -0.0017922297 -0.035177077  -0.03663527 
  956000  0.099747557 -0.024478788   -2.1209643   -1.9713505   -2.1040568 -0.0028847092  -0.03428834 -0.036263314 
  957000   0.10012571 -0.023912104   -2.1198781    -1.969697   -2.0993312 -0.00038125396 -0.035790201 -0.035564858 
  958000   0.09960576 -0.022786686   -2.1227104   -1.9733092   -2.0968422 0.0010235412 -0.035214239  -0.03416936 
  959000  0.099579574 -0.025361286   -2.1203369    -1.970975   -2.1084656 -0.0019020715 -0.037129812 -0.037051974 
  960000   0.09975347 -0.023461488   -2.1217806   -1.9721578   -2.0993491 0.00020526207 -0.036187047 -0.034402678 
  961000  0.099992588 -0.023739208   -2.1205869   -1.9706055   -2.0993024 -0.00079880772 -0.035427132 -0.034991683 
  962000     0.100488 -0.023776621   -2.1210861   -1.9703617   -2.0992613 -0.00038839663 -0.035364933 -0.035576532 
  963000   0.10135017  -0.02429436   -2.1205759   -1.9685583   -2.1002648 -0.0016571347 -0.036303498 -0.034922448 
  964000   0.10035033 -0.023555134   -2.1225518   -1.9720339   -2.0997328 -0.000218538 -0.034637625 -0.035809238 
  965000  0.099184359 -0.026250438   -2.1209624   -1.9721933   -2.1145042 -0.0044053118 -0.037105628 -0.037240375 
  966000  0.099459811 -0.024465501   -2.1207908   -1.9716086   -2.1042429 -0.00041198471 -0.036158149  -0.03682637 
  967000  0.099925097 -0.023019904   -2.1205442    -1.970664   -2.0954614 0.00041374378 -0.034065974 -0.035407481 
  968000  0.099039763  -0.02442594   -2.1201486   -1.9715964   -2.1040162 -0.0019729335  -0.03601577 -0.035289116 
  969000  0.099297194 -0.023512318   -2.1210937   -1.9721554   -2.0996222 0.0004156203 -0.035377028 -0.035575546 
  970000   0.10075397 -0.023847876   -2.1183426   -1.9672192   -2.0965052 -0.001507983 -0.035996161 -0.034039486 
  971000   0.10006065 -0.020908018   -2.1197954   -1.9697119   -2.0830601  0.003598435   -0.0335307  -0.03279179 
  972000   0.10062269 -0.023995654   -2.1202047   -1.9692782   -2.0993653 -0.001389063  -0.03561541 -0.034982488 
  973000   0.10022207  -0.02105355   -2.1203791   -1.9700535   -2.0841906 0.0030034957 -0.032672403 -0.033491743 
  974000  0.099563609 -0.022562287    -2.120859   -1.9715211   -2.0938375 0.0011247402 -0.034074559 -0.034737043 
  975000   0.09922484 -0.024653422   -2.1196893   -1.9708595   -2.1045125 -0.0020470994 -0.035502901 -0.036410265 
  976000   0.10047662 -0.023267706   -2.1215811   -1.9708737   -2.0970144  0.001289036 -0.035846141 -0.035246014 
  977000   0.10052443 -0.023536356   -2.1206381    -1.969859   -2.0974562 -0.00031756624 -0.035601728 -0.034689773 
  978000  0.099177797 -0.023012453    -2.120219   -1.9714597   -2.0962166 -0.00046075471  -0.03432917 -0.034247435 
  979000  0.099692842 -0.025745157   -2.1218943   -1.9723625   -2.1119341 -0.0019155121 -0.038168336 -0.037151623 
  980000   0.10032014   -0.0234339   -2.1224675   -1.9719948   -2.0990365 -0.00014308158 -0.035163661 -0.034994956 
  981000   0.10085496 -0.021906629   -2.1210345   -1.9697596   -2.0885215  0.003960702 -0.035213725 -0.034466863 
  982000   0.10021764 -0.022421852   -2.1196247   -1.9693057   -2.0908608 0.0014298085  -0.03458226 -0.034113105 
  983000  0.099805991 -0.022837478   -2.1201832   -1.9704817     -2.09429 -0.00031810598 -0.034006601 -0.034187727 
  984000  0.099404168 -0.025029953   -2.1212909   -1.9721921   -2.1078865 -0.0016517175  -0.03691579 -0.036522353 
  985000   0.10064442  -0.02704572   -2.1213116   -1.9703525   -2.1169749 -0.0038287323 -0.040152529 -0.037155898 
  986000   0.10024023 -0.024772492   -2.1210552   -1.9707024   -2.1050009 -0.0010343766  -0.03672422  -0.03655888 
  987000  0.099400271  -0.02388126   -2.1203717   -1.9712788   -2.1007457 -0.00086368317 -0.035588789 -0.035191306 
  988000   0.10028554 -0.024418819   -2.1217679   -1.9713471   -2.1037283 -0.0010437415 -0.035335948 -0.036876767 
  989000  0.099867086  -0.02304318   -2.1203844   -1.9705913   -2.0955148 0.0010403226 -0.035207913  -0.03496195 
  990000   0.10002426 -0.023370665   -2.1193438   -1.9693149   -2.0960138 -0.00052209786 -0.034744666 -0.034845232 
  991000  0.099595039 -0.023483984   -2.1198283   -1.9704432   -2.0977564 0.00086986733 -0.036175483 -0.035146338 
  992000  0.099830088 -0.022534459   -2.1204884   -1.9707508   -2.0929163 0.00085651268 -0.034654483 -0.033805406 
  993000  0.099493206 -0.024535419   -2.1201912   -1.9709588   -2.1039722 -0.0015041789 -0.035059584 -0.037042495 
  994000  0.099501311 -0.023955229   -2.1203664   -1.9711219   -2.1009899 -0.00084738703 -0.035957028 -0.035061273 
  995000  0.099330306 -0.022293615   -2.1198488   -1.9708608   -2.0917207 0.0014983887 -0.033468946 -0.034910287 
  996000   0.10041093 -0.022870048   -2.1197857   -1.9691768   -2.0931617 0.00047916562 -0.035563976 -0.033525334 
  997000  0.099940933 -0.021799271   -2.1213982   -1.9714943   -2.0896742 0.0018850207 -0.032946797 -0.034336036 
  998000  0.099796747 -0.024878774   -2.1194866    -1.969799   -2.1046738 -0.0023710254 -0.036068462 -0.036196835 
  999000  0.099206608 -0.022351344   -2.1211666   -1.9723641    -2.093537 0.0032549506 -0.034946144 -0.035362838 
 1000000  0.099922971 -0.023938336   -2.1172371   -1.9673601   -2.0971365 -0.0024278432 -0.033694809 -0.035692354 
Loop time of 9094.95 on 1 procs for 1000000 steps with 20000 atoms

Performance: 47498.881 tau/day, 109.951 timesteps/s
100.0% CPU use with 1 MPI tasks x 1 OpenMP threads

MPI task timing breakdown:
Section |  min time  |  avg time  |  max time  |%varavg| %total
---------------------------------------------------------------
Pair    | 7697.8     | 7697.8     | 7697.8     |   0.0 | 84.64
Neigh   | 1029.8     | 1029.8     | 1029.8     |   0.0 | 11.32
Comm    | 42.163     | 42.163     | 42.163     |   0.0 |  0.46
Output  | 24.764     | 24.764     | 24.764     |   0.0 |  0.27
Modify  | 247.05     | 247.05     | 247.05     |   0.0 |  2.72
Other   |            | 53.42      |            |       |  0.59

Nlocal:    20000 ave 20000 max 20000 min
Histogram: 1 0 0 0 0 0 0 0 0 0
Nghost:    7558 ave 7558 max 7558 min
Histogram: 1 0 0 0 0 0 0 0 0 0
Neighs:    806766 ave 806766 max 806766 min
Histogram: 1 0 0 0 0 0 0 0 0 0

Total # of neighbors = 806766
Ave neighs/atom = 40.3383
Neighbor list builds = 48159
Dangerous builds = 0

write_restart 	out.restart.sys.final.${temp}
write_restart 	out.restart.sys.final.0.1
unfix intg
unfix ploadx
undump  trj
uncompute denprof
unfix   denprof

next    t
jump    SELF temperatureloop
variable t loop 10
variable  temp  equal 0.1+($t-1)*0.1
variable  temp  equal 0.1+(2-1)*0.1

#OUTPUT
# density profile
compute denprof all chunk/atom bin/1d x center ${xbin}
compute denprof all chunk/atom bin/1d x center 0.05
fix     denprof all ave/chunk 100 1000 500000 denprof density/number file out.profile.density.${temp}.data
fix     denprof all ave/chunk 100 1000 500000 denprof density/number file out.profile.density.0.2.data

#OUTPUT
log   log.lammps.${temp}
log   log.lammps.0.2
