thermo 1000
thermo_style custom step temp press pe etotal enthalpy pxx pyy pzz
dump 		trj all atom 500 out.sys_nvt.${temp}.lammpstrj
dump 		trj all atom 500 out.sys_nvt.0.3.lammpstrj
restart 100000 out.restart1.${temp} out.restart2.${temp}
restart 100000 out.restart1.0.3 out.restart2.${temp}
restart 100000 out.restart1.0.3 out.restart2.0.3

fix ploadx all balance 10000 1.05 shift x 20 1.05
fix intg all nvt temp ${temp} ${temp} ${tdump}
fix intg all nvt temp 0.3 ${temp} ${tdump}
fix intg all nvt temp 0.3 0.3 ${tdump}
fix intg all nvt temp 0.3 0.3 1
run ${Nrun}
run 1000000
Per MPI rank memory allocation (min/avg/max) = 12.55 | 12.55 | 12.55 Mbytes
Step Temp Press PotEng TotEng Enthalpy Pxx Pyy Pzz 
 2000000   0.19969536 -0.0011986301   -1.5370626   -1.2375345   -1.2440326 0.0021539554 -0.0025667729 -0.0031830729 
 2001000   0.26689813  0.046279101   -1.4376512    -1.037324  -0.78643214  0.046746661  0.044748122   0.04734252 
 2002000   0.28504579 0.0040147174   -1.2617818  -0.83423453  -0.81246963  0.004849322 0.0021178259 0.0050770042 
 2003000   0.29577694 -0.006746846   -1.1076594  -0.66401615  -0.70059268 -0.0024092591 -0.0097473376 -0.0080839412 
 2004000   0.29913803 -0.0060460386   -1.0117506  -0.56306603  -0.59584329 -0.002303857 -0.0071232322 -0.0087110268 
 2005000   0.30027958 -0.0003495762  -0.96285042  -0.51245357  -0.51434872 0.0025992403 -0.0028536279 -0.00079434099 
 2006000   0.29883166 -0.0015911584  -0.93914578  -0.49092071  -0.49954682 0.00096295925 -0.0021674901 -0.0035689445 
 2007000   0.29832512 0.0024195773  -0.92890541  -0.48144011   -0.4683229 0.0054142375 0.0017909879 5.3506397e-05 
 2008000   0.29868493 0.0054915684  -0.92099603  -0.47299103  -0.44321971 0.0084727027 0.0040957398 0.0039062628 
 2009000   0.30069155  0.005706543  -0.91496723  -0.46395245  -0.43301569 0.0061873547 0.0050414383  0.005890836 
 2010000   0.30158583   0.00738465  -0.91630801  -0.46395189  -0.42391764 0.0080541409  0.008213519 0.0058862902 
 2011000   0.30101361 0.0086797693  -0.91924285  -0.46774501  -0.42068956  0.010504903 0.0068069639 0.0087274409 
 2012000   0.29977279 0.0089130471  -0.92138022  -0.47174352  -0.42342341 0.0085908116 0.0070217577  0.011126572 
 2013000   0.30021602  0.007771488  -0.92238858  -0.47208706  -0.42995566 0.0094499356 0.0091813226 0.0046832058 
 2014000    0.2999379 0.0077891782  -0.91747668  -0.46759233  -0.42536503 0.0063217675 0.0086266312 0.0084191359 
 2015000   0.29657599 0.0076641157  -0.91127738  -0.46643564  -0.42488633 0.0070342787 0.0096243645  0.006333704 
 2016000   0.29927286 0.0079223198  -0.90791467  -0.45902782  -0.41607872   0.01151953 0.0065330212 0.0057144079 
 2017000   0.29842612 0.0088902331  -0.90948773  -0.46187094  -0.41367451 0.0082477664  0.010447757 0.0079751753 
 2018000   0.29796231  0.010004136  -0.91235817  -0.46543705  -0.41120185 0.0098197983  0.010366207 0.0098264036 
 2019000    0.2984612 0.0084757057  -0.90426971   -0.4566003  -0.41065114 0.0071426929 0.0071543793  0.011130045 
 2020000   0.29991209  0.012142664  -0.90956498  -0.45971933  -0.39389057  0.011454126  0.011887863  0.013086004 
 2021000   0.30035436  0.010551425  -0.91131413  -0.46080512   -0.4036029  0.011317348  0.011985818 0.0083511105 
 2022000   0.29756571  0.010596929  -0.91250817  -0.46618191  -0.40873301  0.011732687 0.0091805763  0.010877524 
 2023000   0.29848437 0.0097076589  -0.91632194  -0.46861777  -0.41598985 0.0064334722  0.010132025  0.012557479 
 2024000   0.29895572 0.0097251612  -0.91329998  -0.46488881    -0.412166  0.010355916 0.0085775109  0.010242056 
 2025000   0.29826338  0.010667234  -0.91352476  -0.46615206  -0.40832201  0.011050348  0.010794397  0.010156956 
 2026000   0.30118429   0.01401852  -0.91218003  -0.46042618  -0.38442788  0.013907908  0.013121883  0.015025768 
 2027000   0.30146335   0.01189136  -0.91033377  -0.45816136  -0.39369498  0.011532306  0.013916707  0.010225066 
 2028000   0.30451892   0.01208635  -0.91064058  -0.45388504  -0.38836158 0.0095235863  0.013660877  0.013074586 
 2029000   0.30242278 0.0098587919  -0.90817512  -0.45456363  -0.40111637  0.010534606  0.011068906 0.0079728638 
 2030000   0.30079843  0.011181764  -0.90705191  -0.45587683  -0.39525737  0.013509605 0.0088999261  0.011135761 
 2031000   0.29955099 0.0090264168   -0.9044939  -0.45518988  -0.40625516  0.011037059  0.006741865 0.0093003261 
 2032000   0.30173326 0.0084892058  -0.90119898  -0.44862172  -0.40259938 0.0073866354  0.010936286 0.0071446958 
 2033000   0.29953148 0.0088842823   -0.9024242  -0.45314945  -0.40498528  0.010050611 0.0078605511 0.0087416847 
 2034000   0.29900084  0.010711916  -0.90266789  -0.45418906  -0.39611678 0.0078926176 0.0098234139  0.014419715 
 2035000   0.29955617 0.0075009221  -0.90451615  -0.45520436  -0.41453978 0.0069337153 0.0055681013   0.01000095 
 2036000   0.30234265  0.013885153  -0.89658427  -0.44309297  -0.36781769   0.01162865   0.01473007  0.015296739 
 2037000   0.29941308  0.013024454  -0.89677771  -0.44768055  -0.37707136 0.0096463388  0.013118335  0.016308687 
 2038000   0.30087409  0.011337237  -0.89884078  -0.44755222   -0.3860899  0.011423397 0.0093661635   0.01322215 
 2039000   0.30302882  0.012191624  -0.89262883  -0.43810833  -0.37201414  0.013680777  0.014058598 0.0088354979 
 2040000   0.30217643  0.011910396  -0.89135824  -0.43811626  -0.37354669  0.013097396  0.012375689  0.010258103 
 2041000   0.30141649  0.012389141  -0.89076028  -0.43865815  -0.37149317 0.0090034245   0.01631597  0.011848028 
 2042000   0.30155169   0.01108523  -0.89030818  -0.43800326  -0.37790714  0.010849959  0.014338576  0.008067156 
 2043000   0.30237858  0.012623384  -0.88804301  -0.43449782  -0.36606294  0.014353043  0.011363024  0.012154084 
 2044000   0.30078418  0.009240805  -0.88705952  -0.43590581  -0.38580883  0.009786395 0.0094461745 0.0084898456 
 2045000   0.29759512  0.010905316  -0.88170527  -0.43533491  -0.37621415  0.011622734  0.012100706 0.0089925078 
 2046000   0.29839575  0.007866253  -0.88603959  -0.43846834  -0.39582319 0.0065637167 0.0078308686 0.0092041738 
 2047000    0.2994036  0.012047315  -0.88661942  -0.43753648  -0.37222463  0.012656961  0.013189062  0.010295922 
 2048000   0.29862268 0.0094693252  -0.88917353   -0.4412619  -0.38992606 0.0093185267 0.0094753714 0.0096140776 
 2049000   0.29848251  0.012332812  -0.88780418   -0.4401028  -0.37324319  0.013916754  0.010579277  0.012502406 
 2050000   0.30232933  0.011927478  -0.88008748  -0.42661616  -0.36195398  0.012449365  0.012825524  0.010507545 
 2051000   0.30010918   0.01128525  -0.87841736   -0.4282761  -0.36709562  0.014401768  0.011287225 0.0081667564 
 2052000   0.29944533  0.010921534  -0.88272653    -0.433581  -0.37437233  0.011873654  0.010303391  0.010587556 
 2053000   0.30014387  0.014043895  -0.88475636  -0.43456307   -0.3584272   0.01331196  0.015120526    0.0136992 
 2054000   0.29981107  0.012481956  -0.87902991  -0.42933579  -0.36166763  0.014780322  0.011611945  0.011053603 
 2055000   0.29944679 0.0084650763  -0.87752348  -0.42837576  -0.38248422 0.0095743967 0.0079298129 0.0078910193 
 2056000   0.29693651  0.013106473  -0.87809575  -0.43271325  -0.36165941  0.014958549   0.01181735  0.012543519 
 2057000   0.29663775 0.0081868444  -0.88120686  -0.43627249  -0.39188932  0.007617012   0.01087621 0.0060673107 
 2058000   0.29736833  0.011706733  -0.87921765  -0.43318746    -0.369722  0.011042191  0.012421214  0.011656794 
 2059000   0.29938865  0.013210653  -0.87730889  -0.42824836  -0.35662973  0.016327168  0.011039011   0.01226578 
 2060000   0.29915723  0.013920743  -0.87793567  -0.42922226  -0.35375404  0.013184729  0.016703225  0.011874275 
 2061000    0.2978045  0.011624513  -0.87281216  -0.42612774  -0.36310802  0.012208663  0.011347763  0.011317112 
 2062000   0.30024263  0.012022962  -0.86999827  -0.41965684  -0.35447701  0.012515135  0.010278969  0.013274782 
 2063000   0.30045546  0.011646193    -0.870637  -0.41997634  -0.35683908    0.0143871 0.0090920989   0.01145938 
 2064000   0.29860133  0.013806738  -0.86693989  -0.41906029  -0.34421012  0.013652868  0.014629551  0.013137796 
 2065000    0.2988865  0.011463476  -0.87284916  -0.42454183  -0.36239514  0.010983128  0.011393041  0.012014258 
 2066000   0.30088033  0.013988743  -0.87271786  -0.42141993  -0.34558307  0.012223059   0.01338055  0.016362618 
 2067000   0.30179013   0.01369596  -0.87261395  -0.41995139  -0.34570178  0.014947152  0.013035814  0.013104912 
 2068000   0.30311072  0.013291721  -0.87233048  -0.41768713  -0.34562901  0.011321661  0.015536902  0.013016599 
 2069000   0.29939742  0.014225692  -0.87094011  -0.42186644    -0.344745  0.015282475  0.014992205  0.012402398 
 2070000   0.29835239   0.01275503  -0.87030623  -0.42280002  -0.35365146  0.013745398  0.012590203  0.011929489 
 2071000   0.29935184  0.013199924  -0.87250272  -0.42349742  -0.35193696  0.013203544  0.012947059  0.013449168 
 2072000   0.29688375  0.011220953  -0.87480229  -0.42949892  -0.36866701  0.012042137  0.010085195  0.011535528 
 2073000   0.29957431  0.012515508   -0.8760653   -0.4267263  -0.35887625  0.011138729  0.014575658  0.011832136 
 2074000   0.29653685  0.012457343  -0.87237301  -0.42758997  -0.36005525   0.01195527  0.011848266  0.013568494 
 2075000   0.29717997  0.011336145  -0.87416498  -0.42841732  -0.36696091 0.0095276965  0.012666907  0.011813833 
 2076000   0.30142971  0.015359048  -0.87035322  -0.41823127  -0.33496559   0.01623722  0.014168553  0.015671371 
 2077000   0.30027653  0.017051903  -0.86973614  -0.41934386  -0.32690074   0.01850796  0.017018388  0.015629362 
 2078000   0.29959036  0.015598464  -0.86890379  -0.41954073  -0.33497711  0.015966784  0.015760863  0.015067744 
 2079000   0.29881004  0.014277583  -0.86594265     -0.41775  -0.34034724  0.016537108  0.011914243  0.014381399 
 2080000   0.29884759   0.01351411  -0.86404694  -0.41579797  -0.34253421  0.010680224  0.013477538  0.016384569 
 2081000   0.29715236  0.012186367   -0.8685629  -0.42285664  -0.35679095  0.012796526  0.015209165 0.0085534096 
 2082000   0.29932967  0.013339963  -0.86668879  -0.41771673  -0.34539707   0.01517541  0.011134533  0.013709946 
 2083000   0.30160397  0.015728188  -0.86777909  -0.41539576  -0.33012887  0.013439659  0.017766058  0.015978847 
 2084000   0.29893564  0.016944031  -0.86755178  -0.41917074  -0.32731243  0.018133523  0.016950105  0.015748465 
 2085000    0.3004387  0.012622265  -0.86888199  -0.41824647  -0.34981765  0.014517041  0.011828967  0.011520787 
 2086000   0.30414128  0.013534834  -0.87109168  -0.41490258  -0.34152648  0.015295973  0.012432622  0.012875906 
 2087000   0.30351008  0.016410986  -0.86830013  -0.41305777  -0.32408924  0.017333118  0.016094229   0.01580561 
 2088000   0.30003021  0.014724582  -0.86444249  -0.41441967  -0.33459361  0.011396729  0.017393127  0.015383889 
 2089000   0.30239892  0.014852602  -0.86691923  -0.41334353  -0.33282343  0.016900623  0.012005857  0.015651327 
 2090000   0.30358933  0.018693684  -0.86116386  -0.40580264  -0.30445897  0.022793316  0.016711711  0.016576025 
 2091000   0.30174736  0.015800862  -0.86111314  -0.40851474  -0.32285386  0.013672289  0.016927861  0.016802436 
 2092000   0.30082562    0.0146158  -0.86067652  -0.40946065  -0.33022433   0.01513345   0.01472786   0.01398609 
 2093000   0.30098926  0.014434598  -0.86162612  -0.41016481  -0.33191083  0.015914438  0.013323711  0.014065647 
 2094000   0.30138426  0.015174074  -0.85902004  -0.40696625  -0.32470337  0.017424884  0.015070446  0.013026893 
 2095000   0.30100002  0.015315565  -0.85764395  -0.40616649  -0.32313655  0.016668524  0.015277038  0.014001132 
 2096000   0.30044702  0.014292085  -0.85502152  -0.40437352  -0.32689215  0.011999015  0.015477453  0.015399787 
 2097000   0.30239193  0.011780534  -0.85684201  -0.40327679  -0.33941124  0.011873784  0.010857107  0.012610711 
 2098000   0.30055379  0.012023875  -0.85718863  -0.40638048  -0.34119571  0.010894168  0.012077325  0.013100131 
 2099000    0.2982777  0.014099063  -0.85907031  -0.41167612  -0.33524118  0.013789751  0.014807624  0.013699814 
 2100000   0.29710065  0.013089199  -0.86291451  -0.41728582  -0.34632563  0.016188015 0.0099606144  0.013118967 
 2101000   0.29784578  0.013023008  -0.86328715  -0.41654082  -0.34593946  0.012634811  0.012238681  0.014195532 
 2102000   0.30002305   0.01729194  -0.86044328  -0.41043121  -0.31668679   0.01932746  0.017869397  0.014678965 
 2103000   0.30031888  0.015517493  -0.86025443  -0.40979863  -0.32567397  0.015936849  0.018220615  0.012395014 
 2104000   0.29987672  0.017258686  -0.85625156  -0.40645897  -0.31289483  0.015257241  0.017481243  0.019037573 
 2105000   0.30168387  0.015190453  -0.85582312  -0.40331994  -0.32096826   0.01558209  0.014421472  0.015567799 
 2106000   0.30021544  0.014474904  -0.85457708  -0.40427645  -0.32580396  0.017919228  0.013291559  0.012213925 
 2107000   0.30077802   0.01203597  -0.85455898  -0.40341451  -0.33816417  0.014859919   0.01250934 0.0087386499 
 2108000   0.30096961  0.016896059  -0.85003921  -0.39860737  -0.30700913  0.017020195   0.01901172  0.014656261 
 2109000    0.2978872  0.014607184  -0.85274846     -0.40594  -0.32675039  0.014686915   0.01442931  0.014705327 
 2110000   0.29791239  0.015621946  -0.85180005  -0.40495381  -0.32026289  0.013815312  0.018564689  0.014485837 
 2111000   0.30152905  0.014168434  -0.84839911  -0.39612815  -0.31931712   0.01461252  0.014299168  0.013593612 
 2112000   0.30110584  0.015498266  -0.84624556  -0.39460938  -0.31058897  0.017208671  0.012837113  0.016449013 
 2113000   0.29604443    0.0168744  -0.84469978  -0.40065533  -0.30917451  0.020840977  0.014940954  0.014841268 
 2114000   0.29863168  0.015192432  -0.84770498  -0.39977986  -0.31741746  0.014315287  0.016365438  0.014896571 
 2115000   0.30416214  0.016784878  -0.84477416  -0.38855376  -0.29755827  0.016993992  0.017100917  0.016259724 
 2116000   0.30207437  0.016851232  -0.84559684  -0.39250794  -0.30115271  0.016579779  0.018856071  0.015117847 
 2117000   0.30071726  0.017215821  -0.84807256  -0.39701923  -0.30368747  0.015540953  0.017465936  0.018640575 
 2118000   0.30194255  0.015443585  -0.84748919  -0.39459801  -0.31087403  0.013704671   0.01586102  0.016765066 
 2119000   0.30099096  0.017458028  -0.84511838  -0.39365451  -0.29900968  0.017457014  0.017504108  0.017412963 
 2120000   0.29991839  0.013784426  -0.84448825  -0.39463315  -0.31990394  0.014287203  0.014799304   0.01226677 
 2121000   0.29935304  0.012711017  -0.84164913  -0.39264202  -0.32373206  0.011475673  0.012462407  0.014194971 
 2122000   0.30041742  0.013848935  -0.84171475  -0.39111115  -0.31603221  0.013464497  0.011602282  0.016480026 
 2123000   0.30116117   0.01541644  -0.84376451  -0.39204533  -0.30846852  0.016291429  0.018424012  0.011533878 
 2124000   0.29584743  0.014135839  -0.84878598  -0.40503703  -0.32840271  0.014475947  0.013441617  0.014489953 
 2125000   0.30010045  0.015269004  -0.84949655  -0.39936838  -0.31659085  0.013660584  0.016948696  0.015197733 
 2126000   0.29998412  0.015955822  -0.84439639  -0.39444271  -0.30794175   0.01579407  0.014913724  0.017159672 
 2127000   0.29873459  0.015037454  -0.84023667  -0.39215718  -0.31063496  0.014042015  0.014504823  0.016565524 
 2128000   0.29812402  0.013798732  -0.83898246  -0.39181879  -0.31701202  0.014899813  0.015789716  0.010706667 
 2129000   0.29686465  0.013907822  -0.83710874  -0.39183403  -0.31643585  0.012805809  0.015716281  0.013201377 
 2130000   0.29971076  0.012422206  -0.83678484  -0.38724118  -0.31989694  0.010761066   0.01274335  0.013762203 
 2131000   0.29798281  0.013757288  -0.83598319  -0.38903132  -0.31444923  0.013129645    0.0111106  0.017031619 
 2132000   0.30152729   0.01716469  -0.83487634  -0.38260802  -0.28955345  0.017012037  0.017761031  0.016721003 
 2133000   0.29925633  0.013453745  -0.83541064  -0.38654859  -0.31361209  0.012128351  0.014900868  0.013332014 
 2134000   0.29955031  0.016024753  -0.83430162  -0.38499862  -0.29812397   0.01570971  0.018359565  0.014004985 
 2135000   0.29755518  0.014621112   -0.8371152  -0.39080475  -0.31153963  0.016294946   0.01486631  0.012702081 
 2136000   0.30167301  0.017093875  -0.83528343  -0.38279654  -0.29012588  0.017242751  0.018135212  0.015903663 
 2137000   0.30025911  0.013814637  -0.83630054  -0.38593439   -0.3110414  0.012777925  0.014509651  0.014156335 
 2138000   0.29755427  0.017979962  -0.82931846  -0.38300937  -0.28553498  0.021306604  0.015910148  0.016723135 
 2139000   0.29833462  0.015810514  -0.82929768  -0.38181813  -0.29610493  0.017027521  0.013510442  0.016893579 
 2140000   0.30068972  0.012241165  -0.83268463   -0.3816726  -0.31530983  0.014007048   0.01111525  0.011601198 
 2141000   0.30033201  0.017280324  -0.83406975  -0.38359426  -0.28991281  0.017379678  0.014561214   0.01990008 
 2142000   0.29974878  0.016300842  -0.83287526  -0.38327457  -0.29490316  0.017268833  0.014924227  0.016709466 
 2143000   0.30128631  0.015178913  -0.83485444  -0.38294758  -0.30065846  0.015823279  0.017184155  0.012529306 
 2144000   0.30027633  0.015968231  -0.83361205  -0.38322007  -0.29665184  0.014640875  0.016873337  0.016390481 
 2145000   0.30027061  0.018891801  -0.83508648  -0.38470309  -0.28228537  0.020805296  0.016521252  0.019348856 
 2146000   0.29967941  0.016082224  -0.82995108  -0.38045444  -0.29326823  0.017889531  0.016011984  0.014345157 
 2147000   0.30221362  0.013175508  -0.83283941  -0.37954164  -0.30811354   0.01363207   0.01187296  0.014021493 
 2148000   0.30239876  0.014058403   -0.8298968  -0.37632134  -0.30010683  0.016826383  0.011521698  0.013827127 
 2149000   0.29830265  0.017707021  -0.82849774  -0.38106614  -0.28507145  0.019484689   0.01922967  0.014406705 
 2150000   0.29870807  0.016239167  -0.82692848  -0.37888878  -0.29085173  0.015750912  0.017528569  0.015438021 
 2151000   0.30083122  0.017379721  -0.82205423  -0.37082996  -0.27660965  0.019539952  0.014414548  0.018184664 
 2152000    0.3000018  0.017527582  -0.82236974  -0.37238953  -0.27736763  0.018524532  0.016312639  0.017745575 
 2153000   0.30129038  0.014202124  -0.82934349  -0.37743051  -0.30043684  0.014219646  0.014871778   0.01351495 
 2154000   0.29982699  0.015777565  -0.82931204  -0.37959404  -0.29405947  0.017270596  0.016144853  0.013917247 
 2155000   0.30158457  0.018682538  -0.83117764  -0.37882341  -0.27754017  0.019364456  0.018717091  0.017966066 
 2156000   0.29967286  0.016542307  -0.83113188  -0.38164506  -0.29196461  0.017856945  0.014212455  0.017557521 
 2157000   0.30294273  0.017105335  -0.83160538    -0.377214  -0.28448121  0.018043203  0.016146956  0.017125847 
 2158000   0.30106944  0.017445429  -0.83074889  -0.37916731  -0.28459078  0.018227368  0.014602938  0.019505981 
 2159000   0.30057877  0.016377673  -0.82774099  -0.37689539  -0.28810746  0.017168426  0.016453405  0.015511187 
 2160000    0.2973419  0.015450085  -0.82821599  -0.38222545  -0.29846623  0.016409153  0.014480797  0.015460304 
 2161000   0.29804521  0.015428349  -0.82364866  -0.37660319  -0.29296182  0.014798581  0.018258748  0.013227717 
 2162000     0.302281  0.016476995  -0.82485347  -0.37145464  -0.28212826  0.017545047  0.015801063  0.016084876 
 2163000   0.30214565  0.014377585  -0.82212656  -0.36893074  -0.29098585  0.016563359  0.012580179  0.013989218 
 2164000   0.30029019  0.016693062   -0.8223359  -0.37192314   -0.2814254  0.017406557   0.01423176  0.018440869 
 2165000   0.30205267  0.017371703  -0.82201524  -0.36895889  -0.27478205  0.017162342  0.015582341  0.019370425 
 2166000   0.30182548  0.015960685  -0.82465113  -0.37193554  -0.28540822  0.015343685    0.0146702  0.017868171 
 2167000   0.29935426  0.014487579  -0.82496994    -0.375961  -0.29741979  0.014320768  0.015762739  0.013379232 
 2168000   0.29934041  0.015586536  -0.82982057   -0.3808324  -0.29633345   0.01378114  0.015143936  0.017834533 
 2169000   0.29721592  0.014416802  -0.82480609   -0.3790045    -0.300847  0.013365705  0.013010815  0.016873885 
 2170000   0.29664327  0.012507594  -0.82279212  -0.37784946  -0.31004231  0.010486683  0.012417368  0.014618731 
 2171000   0.30016871  0.014687479  -0.82275815   -0.3725276  -0.29290269  0.013892857  0.016390071  0.013779511 
 2172000   0.30139749  0.014868184  -0.82520938  -0.37313575  -0.29253118  0.016497646   0.01498967  0.013117237 
 2173000   0.29720571  0.014481043  -0.81465703  -0.36887076  -0.29036499  0.016113511  0.013335868  0.013993749 
 2174000   0.29868437   0.01644621  -0.81421153  -0.36620736  -0.27704788  0.017692985  0.016799632  0.014846013 
 2175000   0.30038711  0.013082558  -0.81617257  -0.36561444  -0.29469025  0.015605147  0.012633968  0.011008558 
 2176000   0.29869581  0.017047166  -0.81195995  -0.36393863   -0.2715212   0.01940373  0.017456405  0.014281364 
 2177000   0.30134482  0.016542087  -0.81033067  -0.35833605  -0.26865679  0.016098332  0.015995554  0.017532374 
 2178000   0.30152415  0.015201426  -0.80989601   -0.3576324  -0.27522124  0.013706405   0.01307792  0.018819953 
 2179000   0.30078947  0.014445103   -0.8068347  -0.35567305  -0.27736213   0.01379938   0.01548152  0.014054407 
 2180000   0.30107772  0.016296023  -0.81431085  -0.36271685  -0.27437158  0.017964811  0.015214379  0.015708879 
 2181000   0.29814549  0.015897268  -0.81376822  -0.36657234  -0.28038883  0.015489894   0.01472396  0.017477949 
 2182000   0.30018769    0.0146416  -0.81453552  -0.36427649   -0.2849003  0.014576545  0.015169227  0.014179028 
 2183000   0.29811826  0.015581611  -0.81282774  -0.36567271  -0.28120046  0.016199527  0.017136358  0.013408948 
 2184000   0.29917263  0.015676375  -0.80922053  -0.36048403  -0.27549804  0.015650822  0.015214371   0.01616393 
 2185000   0.29840323  0.015948668   -0.8102347  -0.36265224  -0.27619007  0.014958092   0.01599528  0.016892631 
 2186000   0.29976844  0.013280539  -0.81136139  -0.36173122  -0.28973372  0.012757433  0.016442962  0.010641223 
 2187000   0.30044314  0.014381997  -0.81175227  -0.36111011  -0.28314129  0.013338862  0.015612938  0.014194191 
 2188000   0.29874401  0.016203984  -0.80693951   -0.3588459  -0.27099959  0.015955024  0.019472285  0.013184642 
 2189000   0.30066869   0.01454234  -0.80384094  -0.35286045  -0.27402238  0.016006315  0.013258852  0.014361852 
 2190000     0.303676  0.016722918   -0.8071058  -0.35161457  -0.26095498  0.016795948  0.015594388  0.017778419 
 2191000   0.30014662  0.016093111  -0.80451288  -0.35431546  -0.26707023  0.017385741  0.013525888  0.017367704 
 2192000   0.29846949  0.015513164  -0.80263553  -0.35495369   -0.2708525  0.015843813  0.014535309  0.016160372 
 2193000   0.30050704  0.014067697  -0.80083725  -0.35009923  -0.27383432  0.012852429  0.015672271  0.013678392 
 2194000   0.30035973  0.016710943  -0.79848234  -0.34796527  -0.25737059  0.017080015  0.017651638  0.015401177 
 2195000   0.29947404  0.015901434  -0.79644265  -0.34725405  -0.26104794  0.015599326  0.014713109  0.017391866 
 2196000   0.30063722  0.013275608  -0.79359367  -0.34266039  -0.27068963  0.014450033  0.013473122  0.011903668 
 2197000   0.29712545  0.014067601   -0.7977137  -0.35204781  -0.27578343  0.013975189  0.016234242  0.011993373 
 2198000   0.29681437  0.014311369  -0.79610255  -0.35090326  -0.27331735  0.015656139  0.012865554  0.014412413 
 2199000   0.30110557  0.013315467  -0.80220612  -0.35057034  -0.27838349  0.013541561    0.0109143  0.015490541 
 2200000   0.29887947  0.016314468  -0.80005926  -0.35176247  -0.26331719   0.01418162  0.015920189  0.018841595 
 2201000   0.29971243  0.015346579  -0.80199653  -0.35245036  -0.26925228  0.017708219  0.014306872  0.014024647 
 2202000   0.30078241  0.018928252  -0.79638698  -0.34523592  -0.24262059  0.021624109  0.014881706  0.020278939 
 2203000   0.30033698  0.015240001  -0.79126036  -0.34077742  -0.25815714   0.01543832  0.017845007  0.012436675 
 2204000   0.30114957  0.013791675  -0.79758845  -0.34588669  -0.27111818   0.01403299  0.015536418  0.011805616 
 2205000   0.29797742  0.013924676  -0.79763528  -0.35069149  -0.27520194  0.013542333       0.0128  0.015431695 
 2206000   0.29764975  0.014567161  -0.80700388  -0.36055157  -0.28157894  0.013847992  0.014650559   0.01520293 
 2207000   0.29968337   0.01804197  -0.80712017  -0.35761759  -0.25980705  0.018861027  0.018215716  0.017049167 
 2208000   0.29722105  0.016734277  -0.80147371  -0.35566442  -0.26494324  0.013430072  0.019343991  0.017428768 
 2209000   0.29759322  0.014389109  -0.80290337  -0.35653587   -0.2785285  0.013784381  0.015426477  0.013956468 
 2210000   0.29697727  0.013837172  -0.80808104   -0.3626374  -0.28762224   0.01409524  0.013147655  0.014268622 
 2211000   0.29880779  0.018276348  -0.81091239  -0.36272311  -0.26364194  0.018081345  0.018179505  0.018568194 
 2212000   0.29573407  0.015684388   -0.8067452  -0.36316627  -0.27813683  0.016604905  0.014759124  0.015689136 
 2213000   0.30151199  0.017084398  -0.80575661  -0.35351124  -0.26089196  0.018454055  0.017837142  0.014961997 
 2214000   0.30003666  0.018954695  -0.80523271  -0.35520022  -0.25244154   0.01898906  0.019723661  0.018151365 
 2215000   0.29804447  0.017920867  -0.80001097  -0.35296662  -0.25581261  0.019783416  0.017182115   0.01679707 
 2216000   0.29830203  0.012986421  -0.80077419  -0.35334352  -0.28294052  0.014714874  0.011592892  0.012651496 
 2217000   0.29891522  0.016656866  -0.79548235  -0.34713195  -0.25683044  0.018450935  0.013981568  0.017538095 
 2218000   0.29942247   0.01541543  -0.79695056  -0.34783932  -0.26426798  0.017448431  0.012252913  0.016544946 
 2219000   0.30024644   0.01537503  -0.79238353  -0.34203639  -0.25868407  0.014669655  0.014892588  0.016562846 
 2220000   0.30021449  0.018355303  -0.79147965  -0.34118044  -0.24167123  0.020161025  0.017480469  0.017424414 
 2221000   0.29931828  0.015915466  -0.79317681  -0.34422184  -0.25793967  0.016236331  0.017515123  0.013994943 
 2222000   0.30114426  0.013664684  -0.79689915  -0.34520535  -0.27112529  0.013480736  0.013441054  0.014072262 
 2223000   0.30143171  0.018585911  -0.79231841  -0.34019344  -0.23943404  0.019712248  0.018255504  0.017789982 
 2224000   0.29842019  0.012771413  -0.79788118  -0.35027327  -0.28103588  0.010874349  0.012607327  0.014832564 
 2225000   0.29852737  0.016737621  -0.79116376   -0.3433951  -0.25265579  0.016306111  0.017862643  0.016044108 
 2226000   0.29824209  0.013759908   -0.7882006  -0.34085985  -0.26626355  0.011357761  0.015049558  0.014872405 
 2227000   0.30162579  0.015571206  -0.79521494  -0.34279887  -0.25838302  0.017333437  0.015770535  0.013609647 
 2228000   0.29936515  0.017563671  -0.79169754  -0.34267227  -0.24745472  0.017037834  0.018567719  0.017085459 
 2229000   0.30187165  0.016164846  -0.79390521  -0.34112037  -0.25348624  0.015982581  0.015409682  0.017102276 
 2230000   0.29764445  0.017416548  -0.79193865  -0.34549429  -0.25107433  0.016869572  0.018732888  0.016647185 
 2231000   0.29942261  0.015976042  -0.79678316  -0.34767169  -0.26106112  0.015466622  0.015559575   0.01690193 
 2232000     0.301262  0.017578067  -0.80058426  -0.34871387  -0.25341827    0.0192729  0.017067896  0.016393405 
 2233000    0.3014494  0.017029278  -0.80091078   -0.3487593  -0.25643884  0.016778742   0.01712232  0.017186771 
 2234000   0.30037086  0.016835826  -0.79885779  -0.34832403  -0.25705233   0.02006815  0.013293615  0.017145711 
 2235000   0.29939742  0.018218047  -0.79836795  -0.34929427  -0.25052917  0.017605546  0.020400009  0.016648585 
 2236000    0.3003462  0.016347712  -0.79241864  -0.34192185  -0.25329635  0.017741358  0.014300765  0.017001014 
 2237000   0.30098907  0.014796085  -0.79483775  -0.34337672  -0.26316302  0.012960206  0.018021886  0.013406163 
 2238000   0.30451523  0.015956387  -0.78937182  -0.33262182   -0.2461178  0.016813434  0.014917923  0.016137805 
 2239000   0.30273764  0.016714856  -0.78942293  -0.33533917  -0.24472328  0.018939449  0.015108469  0.016096651 
 2240000   0.30130553  0.017637626  -0.78818979  -0.33625409  -0.24063561   0.02020015  0.015270775  0.017441952 
 2241000   0.30066977  0.015669828  -0.78733155  -0.33634944  -0.25139894  0.018100359  0.013683777  0.015225346 
 2242000   0.30074287  0.019186881  -0.78811582  -0.33702406  -0.23300664  0.022479547  0.020759128  0.014321968 
 2243000   0.30315418  0.018316698  -0.78897474   -0.3342662  -0.23496628  0.020151695   0.01552781  0.019270589 
 2244000   0.30259308  0.015787212  -0.78717848  -0.33331156  -0.24772469  0.016068983  0.016490562  0.014802092 
 2245000   0.30280437  0.017230719  -0.78813002  -0.33394618  -0.24053366   0.01729064  0.017158204  0.017243312 
 2246000   0.29909933  0.018635011  -0.78238413  -0.33375758  -0.23273199  0.017553188   0.02209521  0.016256636 
 2247000   0.30050858  0.017143998  -0.78741789  -0.33667756  -0.24373517   0.01604133  0.018726414  0.016664248 
 2248000   0.30148798  0.014380566  -0.78476872  -0.33255936   -0.2545983  0.016109746  0.013836518  0.013195435 
 2249000   0.30301086  0.018452028  -0.78168098  -0.32718741  -0.22715383  0.016883342  0.019434781  0.019037961 
 2250000   0.30130881  0.017210439  -0.78027878  -0.32833816  -0.23503557  0.017293691  0.018495745  0.015841881 
 2251000   0.30316756  0.019752363  -0.77942166  -0.32469305  -0.21760999  0.020451674  0.017440758  0.021364658 
 2252000   0.30097997  0.017176701  -0.78580184  -0.33435446  -0.24123478  0.017948345  0.016946084  0.016635674 
 2253000   0.30144099  0.018146831  -0.78697628  -0.33483741  -0.23645838   0.01596636  0.020164492  0.018309641 
 2254000   0.30276727   0.01996667  -0.78749799  -0.33336979  -0.22512491  0.020304314  0.018618312  0.020977384 
 2255000   0.30031008  0.015496429  -0.78633124  -0.33588864  -0.25187819  0.015163289  0.016192433  0.015133563 
 2256000   0.29722651  0.017540474  -0.78348523  -0.33766776  -0.24257597  0.019854363  0.016585981  0.016181078 
 2257000   0.29710498  0.017773192  -0.78461769   -0.3389825  -0.24262907  0.019709159  0.017044863  0.016565554 
 2258000    0.3002011   0.01382094   -0.7885548  -0.33827567  -0.26334851  0.014386908  0.015492768  0.011583144 
 2259000   0.30045364  0.016445254  -0.78313686  -0.33247893  -0.24332463  0.017999269   0.01494025  0.016396244 
 2260000   0.30037419  0.019633857  -0.78526642  -0.33472766  -0.22828706   0.01964751  0.018786774  0.020467288 
 2261000   0.30338789  0.019243587  -0.78491806  -0.32985897  -0.22553413  0.020944639  0.018185623    0.0186005 
 2262000   0.29801109  0.012885536  -0.78864058   -0.3416463  -0.27179022  0.015542984  0.011016321  0.012097302 
 2263000   0.29744993  0.015711232    -0.788892  -0.34273941  -0.25756445  0.016042205  0.015835132  0.015256358 
 2264000   0.30012629  0.019156983  -0.78118395  -0.33101702  -0.22716168  0.017959988  0.018296048  0.021214915 
 2265000   0.30466845  0.016069384  -0.77841523   -0.3214354  -0.23431879  0.015698487   0.01548979  0.017019875 
 2266000   0.29906555  0.016700111  -0.77994336  -0.33136747  -0.24083152  0.015581441   0.01747606  0.017042831 
 2267000   0.30047516  0.015345681  -0.78300624  -0.33231604  -0.24912283  0.017534535  0.015413349  0.013089159 
 2268000    0.2975874   0.01562936  -0.78128882  -0.33493004  -0.25019892  0.018898366  0.012671898  0.015317817 
 2269000   0.29750633  0.016921321  -0.78721194  -0.34097475  -0.24923956  0.017057502  0.017430746  0.016275715 
 2270000    0.3015507  0.013272052  -0.78428487  -0.33198144  -0.26002995  0.016827626  0.013109744 0.0098787867 
 2271000   0.30046121  0.016570925  -0.78113201  -0.33046273  -0.24062713  0.017254734  0.017251473  0.015206567 
 2272000   0.30167168  0.016555018   -0.7818568  -0.32937191  -0.23962254   0.01435058   0.01517445  0.020140022 
 2273000   0.29854757  0.016223198  -0.77688804  -0.32908907   -0.2411386  0.016902233  0.013868825  0.017898535 
 2274000   0.29897749   0.01413698  -0.77754666  -0.32910285  -0.25246234   0.01391284  0.011775474  0.016722627 
 2275000   0.29855522  0.017508272  -0.77512522  -0.32731477  -0.23239756  0.021355913  0.016347885  0.014821017 
 2276000   0.29766857  0.016321605  -0.77779027  -0.33130974  -0.24282577  0.016683617  0.017990521  0.014290677 
 2277000   0.29927835  0.016941069  -0.77700826  -0.32811318  -0.23627093  0.017437053  0.017545468  0.015840685 
 2278000   0.30017872  0.017213842  -0.77164184  -0.32139627  -0.22807523  0.016599974  0.017093272  0.017948281 
 2279000   0.30197294   0.01802776  -0.77045592  -0.31751915  -0.21978564  0.019573958  0.015768761  0.018740562 
 2280000   0.29903194  0.014034318  -0.76664157  -0.31811609  -0.24203214  0.014367629  0.012752636  0.014982689 
 2281000    0.2991512  0.012084118  -0.77312629  -0.32442192  -0.25891055  0.013258687  0.012498168  0.010495499 
 2282000   0.30005495  0.017463253   -0.7752262  -0.32516627  -0.23049311  0.018396573  0.017885822  0.016107365 
 2283000   0.30157323  0.019537072   -0.7768593  -0.32452207  -0.21860616  0.020688022  0.019493274  0.018429919 
 2284000   0.30389435  0.017558683   -0.7777056  -0.32188686  -0.22669635  0.020083339  0.017023487  0.015569224 
 2285000   0.30066737  0.018978539  -0.77373638  -0.32275787  -0.21986993  0.021304573  0.018372819  0.017258225 
 2286000   0.29960135   0.01442771  -0.76947061  -0.32009106  -0.24187443  0.015615841   0.01532003   0.01234726 
 2287000   0.30105274   0.01522657  -0.76830513   -0.3167486  -0.23420113  0.016711257  0.015211949  0.013756503 
 2288000   0.30363703  0.019132372  -0.76870204  -0.31326926  -0.20954734  0.018336719  0.019650999  0.019409398 
 2289000   0.30055183  0.017186726  -0.77070491  -0.31989971  -0.22672568  0.016651445  0.014592564  0.020316168 
 2290000   0.29861144  0.017160192  -0.76663196  -0.31873719  -0.22570701   0.01845131  0.016277443  0.016751823 
 2291000   0.30316869  0.017584225  -0.77030314  -0.31557285  -0.22024387  0.017996976  0.017383887  0.017371811 
 2292000   0.30174916  0.017373864  -0.77203661   -0.3194355  -0.22524694  0.018979677  0.015640938  0.017500978 
 2293000   0.30104865  0.015116327  -0.76847243  -0.31692203  -0.23497221  0.017557139  0.014673609  0.013118232 
 2294000   0.30150961   0.01787402  -0.76663626  -0.31439445  -0.21749441  0.019090141  0.017944494  0.016587424 
 2295000   0.30107037   0.01554846  -0.76467503  -0.31309205  -0.22879952  0.015226499  0.014544797  0.016874084 
 2296000   0.29986732  0.017029656   -0.7634224  -0.31364391   -0.2213214  0.015970225  0.018132694   0.01698605 
 2297000   0.30070185  0.018425323  -0.76851167  -0.31748146  -0.21759265  0.017774775  0.017361367  0.020139828 
 2298000   0.30336823  0.018097311  -0.77159117  -0.31656157  -0.21845101  0.017639406  0.017594939  0.019057586 
 2299000   0.30111062  0.015484051   -0.7674525  -0.31580915   -0.2318658  0.015613953  0.017329092  0.013509108 
 2300000   0.29976198  0.015698645  -0.77021761  -0.32059712   -0.2354904  0.020087514  0.015588225  0.011420197 
 2301000   0.30214218  0.018588736  -0.76660656  -0.31341595  -0.21264124  0.018262365  0.018995383   0.01850846 
 2302000   0.29843055  0.016802928  -0.76357376  -0.31595032  -0.22485697  0.016091044  0.013506297  0.020811443 
 2303000   0.30103145  0.012877005  -0.76672093  -0.31519633   -0.2453865  0.011114557  0.013658346  0.013858112 
 2304000   0.29847657  0.015703021  -0.76814964  -0.32045718  -0.23532673  0.017678851  0.014560052   0.01487016 
 2305000   0.29896742   0.01741701  -0.76697922  -0.31855051  -0.22412805  0.017777855  0.018117932  0.016355242 
 2306000   0.29961696  0.014697262  -0.76087396  -0.31147099  -0.23179304  0.017241016  0.015126385  0.011724384 
 2307000   0.30168683  0.014794938  -0.76527143  -0.31276381  -0.23255633  0.015779394  0.014530438   0.01407498 
 2308000   0.29789238  0.015341723   -0.7632182  -0.31640197  -0.23323022  0.017136755   0.01435948  0.014528935 
 2309000   0.29767294  0.017566835  -0.76412427  -0.31763718  -0.22240248  0.017703342   0.01767976  0.017317403 
 2310000   0.29902073  0.016579592  -0.76023149  -0.31172282  -0.22184023  0.016683261  0.016688982  0.016366533 
 2311000   0.30067735  0.017054729  -0.76212794  -0.31113446  -0.21867602  0.016835506  0.014847183  0.019481498 
 2312000   0.29970047  0.015303705  -0.76117516  -0.31164694  -0.22868129  0.014833022  0.017637514  0.013440578 
 2313000    0.2998957  0.015861648  -0.75954612  -0.30972506  -0.22373465  0.015142347  0.016292906   0.01614969 
 2314000   0.30022165  0.016408444  -0.75961798  -0.30930802  -0.22035328   0.01716824  0.014335837  0.017721254 
 2315000   0.29773045  0.018361725  -0.76510321  -0.31852986  -0.21898583  0.020445355  0.018556931  0.016082889 
 2316000    0.2989624  0.016039319  -0.76520994  -0.31678876  -0.22983514  0.014462263  0.015005838  0.018649857 
 2317000    0.2986273  0.019252937  -0.76425666  -0.31633811  -0.21196257  0.018365862  0.020352864  0.019040086 
 2318000    0.2998531  0.013751515  -0.76648686  -0.31672969   -0.2421789    0.0135059  0.013962302  0.013786342 
 2319000   0.29927779   0.01937591  -0.75679789  -0.30790366  -0.20286145  0.019971492  0.017990233  0.020166005 
 2320000   0.29984699  0.017201629  -0.75734529  -0.30759729  -0.21434247  0.019533435  0.015499393  0.016572059 
 2321000    0.3022152  0.014648769  -0.76326997  -0.30996984  -0.23055478  0.016889191  0.012879077  0.014178038 
 2322000   0.30015848   0.01839006  -0.75991028  -0.30969507  -0.20999743   0.02036291   0.01778304  0.017024231 
 2323000   0.29982964   0.01629232  -0.76260263  -0.31288066  -0.22455545  0.016589248  0.015027183   0.01726053 
 2324000   0.29801726  0.016171075  -0.76511281  -0.31810927  -0.23044137  0.017994629  0.014583705   0.01593489 
 2325000   0.29817669  0.016362316  -0.76093487  -0.31369219  -0.22498752   0.01829499  0.016142042  0.014649916 
 2326000   0.30079789  0.018020229   -0.7631011  -0.31192682  -0.21423414   0.02001138  0.015873294  0.018176014 
 2327000   0.30006227  0.020538002  -0.76162637  -0.31155547  -0.20021324  0.020641713  0.022331341  0.018640952 
 2328000   0.30170557  0.018798872    -0.763484  -0.31094827  -0.20903435  0.020887075  0.019941105  0.015568435 
 2329000   0.30437622  0.019422154  -0.76397182  -0.30743032  -0.20213742  0.018676442  0.019100214  0.020489805 
 2330000   0.29826918  0.014275846   -0.7699352  -0.32255379  -0.24516045  0.014465933   0.01356671  0.014794894 
 2331000   0.30090418  0.018268199  -0.76250228  -0.31116858  -0.21213159  0.016447546  0.018405024  0.019952026 
 2332000   0.30269823  0.019168057  -0.76307478  -0.30905014  -0.20513476  0.019540749  0.019245039  0.018718384 
 2333000   0.30080082  0.018439226  -0.76082548  -0.30964681  -0.20968264  0.016315922  0.018741647  0.020260108 
 2334000    0.3006308  0.017983016  -0.76213693  -0.31121328  -0.21372234  0.019421027  0.015645149  0.018882871 
 2335000   0.29969168  0.017894085  -0.76133658  -0.31182153  -0.21481271  0.019738999    0.0163868  0.017556456 
 2336000   0.30293294  0.016554015  -0.76018976  -0.30581308  -0.21606915  0.013928319  0.017895916  0.017837811 
 2337000   0.30264149  0.019414632  -0.75593639  -0.30199684  -0.19674472  0.018612611  0.018862863  0.020768423 
 2338000   0.30246556  0.016464978  -0.75746823  -0.30379256  -0.21453133  0.016264999  0.018267052  0.014862883 
 2339000   0.30186623  0.018300209   -0.7567684  -0.30399169  -0.20478116  0.018826406  0.018202665  0.017871555 
 2340000   0.29818095  0.015271052   -0.7583781  -0.31112905  -0.22834042   0.01474362  0.017965983  0.013103554 
 2341000   0.29881917  0.016508232  -0.76031629  -0.31210996  -0.22261423  0.015906266  0.013785896  0.019832534 
 2342000   0.29990421  0.016914245  -0.76210336  -0.31226955  -0.22057272  0.016480223  0.016697532  0.017564979 
 2343000   0.29988685  0.017622031  -0.76203072  -0.31222293  -0.21668899  0.021272173   0.01422134  0.017372579 
 2344000   0.29949267  0.019418792  -0.76668435  -0.31746781  -0.21219313  0.020139913  0.018660983  0.019455481 
 2345000    0.2993093  0.017557869  -0.76799913  -0.31905763  -0.22387153  0.017202211  0.018814736   0.01665666 
 2346000   0.30013784  0.015846035  -0.76850996  -0.31832571  -0.23241995  0.016673966  0.016013972  0.014850167 
 2347000   0.29960437  0.018778943  -0.76762338   -0.3182393  -0.21643342  0.018437578  0.018305058  0.019594195 
 2348000     0.299732  0.017696532  -0.75982716  -0.31025164  -0.21431381  0.019499173  0.019551215  0.014039208 
 2349000   0.29954692  0.016632988  -0.75840691  -0.30910899  -0.21893693  0.016454028  0.016774773  0.016670164 
 2350000   0.29904575  0.014686631  -0.76190148  -0.31335529  -0.23373498  0.017224696   0.01253735  0.014297846 
 2351000   0.29854986  0.015244224   -0.7617066   -0.3139042  -0.23126102  0.015664048  0.016517903  0.013550722 
 2352000   0.29984327  0.014322665  -0.76732587  -0.31758346   -0.2399363  0.014609109  0.013243074  0.015115813 
 2353000   0.30022359  0.017870864  -0.76885565  -0.31854278  -0.22165985  0.018655617  0.017094969  0.017862006 
 2354000   0.29996611  0.017897155  -0.76607154  -0.31614488  -0.21911942  0.015031106  0.021116023  0.017544335 
 2355000   0.30037556   0.01817519  -0.76167219  -0.31113137   -0.2125986   0.02074169  0.017070468  0.016713413 
 2356000   0.30110129  0.019191568  -0.75995614  -0.30832678  -0.20428395  0.017803302  0.018979368  0.020792035 
 2357000    0.3007467  0.017421384  -0.75571482  -0.30461733  -0.21017115  0.016012365  0.019049865  0.017201922 
 2358000    0.3004156  0.019364163  -0.75414949  -0.30354863  -0.19857011  0.021342304  0.018552088  0.018198098 
 2359000   0.30138153  0.016810292  -0.75212736  -0.30007766  -0.20894439  0.017829611  0.015489259  0.017112004 
 2360000   0.30223031  0.016182038  -0.75396355  -0.30064075  -0.21291342  0.018720923  0.016048127  0.013777062 
 2361000   0.30195718  0.018263802  -0.75565086  -0.30273774  -0.20372458  0.017350674  0.018121964  0.019318769 
 2362000   0.30412897  0.021536966  -0.75946516  -0.30329452  -0.18653663  0.021598373  0.022323404   0.02068912 
 2363000   0.30374838  0.021158665  -0.75951683  -0.30391704  -0.18921003  0.020148211  0.022132947  0.021194837 
 2364000   0.30050036   0.01983272  -0.75474946  -0.30402146  -0.19650276  0.019607589   0.02140826   0.01848231 
 2365000   0.30176358  0.018889262  -0.75597701  -0.30335427  -0.20095032  0.016992645  0.020732891  0.018942251 
 2366000   0.30214384  0.015308554  -0.76035492  -0.30716182  -0.22416989  0.020079684  0.012316232  0.013529744 
 2367000   0.29910214  0.018073675  -0.75657169  -0.30794092  -0.20995849  0.015852181  0.018724575  0.019644269 
 2368000    0.2987795  0.015400552  -0.75355781  -0.30541097  -0.22192029  0.016161596  0.013877136  0.016162925 
 2369000   0.29957016  0.015308255  -0.75624829  -0.30691552  -0.22392521  0.016404211  0.014276853    0.0152437 
 2370000   0.30003585  0.017713618  -0.75859088   -0.3085596  -0.21252914  0.019387997  0.018474479  0.015278377 
 2371000    0.3000817   0.01613767  -0.76377557  -0.31367553  -0.22618873  0.016891113  0.014630685  0.016891213 
 2372000   0.30085922  0.015892606  -0.76223617  -0.31096991  -0.22481167   0.01751782  0.015282276   0.01487772 
 2373000   0.29876825  0.019659117  -0.75777113  -0.30964116  -0.20306361   0.02127487  0.019055702   0.01864678 
 2374000   0.30132685  0.016592912  -0.76071773  -0.30875006  -0.21879526  0.018820012   0.01775934  0.013199384 
 2375000   0.29935826  0.015717407  -0.76484968  -0.31583474   -0.2306263  0.018223789  0.013032133  0.015896297 
 2376000   0.29703537  0.016036966   -0.7605919  -0.31506112  -0.22812027  0.015242966  0.017530033  0.015337898 
 2377000    0.2980892  0.017398081  -0.75595711  -0.30884566  -0.21452582   0.01911563  0.017460772  0.015617842 
 2378000   0.29947947  0.014502923  -0.75471943  -0.30552268  -0.22689829  0.014718147  0.015134406  0.013656216 
 2379000     0.298381  0.014836697  -0.75453041  -0.30698128  -0.22654741  0.013788155  0.014612681  0.016109256 
 2380000   0.30171485  0.015629051  -0.75597046  -0.30342081  -0.21869137   0.01620606  0.015435084   0.01524601 
 2381000   0.30101644  0.019302405  -0.75526849  -0.30376641  -0.19912269  0.021012261  0.018569899  0.018325056 
 2382000   0.30016795  0.018654642  -0.75798436  -0.30775496  -0.20662295  0.020434261  0.018521206  0.017008458 
 2383000   0.29815407  0.017531948  -0.76274181  -0.31553306  -0.22048749  0.016274831   0.01929435  0.017026662 
 2384000   0.30285045  0.017689381  -0.76022543  -0.30597247   -0.2100734  0.019386259  0.016507702  0.017174183 
 2385000    0.3015162  0.016249848   -0.7593414  -0.30708972  -0.21899477  0.017187629  0.016773428  0.014788485 
 2386000   0.29833124  0.016643813  -0.76230619  -0.31483171  -0.22460096  0.019182847  0.014124493  0.016624098 
 2387000   0.29983172  0.017289417  -0.75696114  -0.30723605   -0.2135053  0.016324643  0.016812774  0.018730834 
 2388000   0.30155355  0.015880172  -0.75441069  -0.30210299  -0.21601215  0.014784611  0.016455854  0.016400052 
 2389000   0.29675023   0.01374644  -0.75359143  -0.30848834  -0.23396506  0.014631931  0.012724885  0.013882505 
 2390000   0.29900079  0.016992821  -0.75741379  -0.30893503  -0.21681221  0.019395759  0.015876297  0.015706406 
 2391000   0.30030257  0.017365744  -0.76370408  -0.31327275  -0.21912821  0.017844899   0.01781353  0.016438802 
 2392000   0.29680254  0.017995892  -0.75683569  -0.31165414   -0.2140934  0.020166026  0.015093242  0.018728408 
 2393000   0.30154509  0.016004624  -0.75469419  -0.30239917  -0.21563364  0.017653588   0.01441181  0.015948474 
 2394000    0.3015966   0.01783309  -0.75454529  -0.30217301  -0.20549486  0.017811811  0.015855635  0.019831825 
 2395000   0.30040464  0.017882829   -0.7553509  -0.30476647  -0.20781868   0.01602748  0.018946016   0.01867499 
 2396000   0.30248479  0.018410981  -0.75758214  -0.30387763  -0.20406657  0.015348407  0.021635799  0.018248738 
 2397000   0.29936127  0.019511325  -0.75941664   -0.3103972  -0.20462087  0.019371064  0.020809939   0.01835297 
 2398000   0.30016877  0.016986129  -0.75601008  -0.30577945  -0.21369291  0.016846482  0.017512829  0.016599078 
 2399000   0.30116823   0.01629899  -0.75626937  -0.30453961  -0.21617825  0.017391075  0.016693279  0.014812616 
 2400000   0.29967946  0.018184636  -0.74956519  -0.30006847   -0.2014845  0.020611386  0.016717534  0.017224988 
 2401000    0.3028411  0.016080616  -0.74952143  -0.29528249  -0.20810499  0.016092221  0.013158289  0.018991338 
 2402000   0.29965918  0.017220945  -0.74739963  -0.29793333  -0.20457379  0.019027955  0.016779234  0.015855647 
 2403000   0.30052788   0.01749661   -0.7532482  -0.30247892  -0.20762492  0.017984867  0.012936407  0.021568555 
 2404000   0.29936041  0.014785871  -0.75521161  -0.30619345  -0.22603512  0.014716694  0.013528361  0.016112559 
 2405000   0.30045541   0.01466709  -0.76200492  -0.31134434  -0.23182996  0.017538185   0.01361749  0.012845594 
 2406000   0.30068028   0.01795992  -0.76202753  -0.31102966  -0.21366393  0.017863411  0.016974624  0.019041725 
 2407000   0.30033625  0.019582265  -0.75924576  -0.30876391    -0.202603  0.021019369  0.019748245  0.017979181 
 2408000   0.30260715  0.017157443  -0.75861062   -0.3047226  -0.21170732  0.017659516  0.015937306  0.017875508 
 2409000   0.30058429  0.019241189  -0.75795672  -0.30710283  -0.20279098  0.019185302  0.021463464  0.017074802 
 2410000   0.30067048  0.018581669   -0.7553452  -0.30436202  -0.20362562  0.018140454  0.017478424  0.020126128 
 2411000   0.29994397  0.018438123  -0.75570125  -0.30580779  -0.20584959  0.019769991   0.01666883  0.018875548 
 2412000   0.30312499  0.017176859  -0.75804476  -0.30338001  -0.21025947  0.017226328  0.015204205  0.019100046 
 2413000    0.2989294  0.017002473   -0.7595394  -0.31116772  -0.21899258  0.016295864  0.017416054  0.017295502 
 2414000   0.29837327  0.016513625  -0.76142617  -0.31388864  -0.22436368  0.015745542  0.017464466  0.016330867 
 2415000   0.29903779  0.016834563  -0.75808879  -0.30955455  -0.21828969  0.015679055  0.018592139  0.016232495 
 2416000   0.29963642    0.0125377  -0.75780158  -0.30836942  -0.24039906  0.015524522   0.01208525  0.010003328 
 2417000   0.29891746  0.020068305  -0.75814585  -0.30979207   -0.2009962  0.017038487  0.020815267  0.022351162 
 2418000   0.29967059  0.016714589  -0.75224269  -0.30275928  -0.21214484  0.017484954  0.016698194  0.015960617 
 2419000   0.29815016  0.015964833  -0.74650474  -0.29930185  -0.21275204  0.016444681  0.015180281  0.016269537 
 2420000   0.30021601  0.014290502  -0.75112733  -0.30082583  -0.22335303  0.015193909  0.015258288  0.012419309 
 2421000   0.30060426  0.016605997  -0.75311811  -0.30223427  -0.21220854  0.016932011  0.016646139  0.016239841 
 2422000   0.30161054  0.016907262  -0.75263881  -0.30024562  -0.20858664    0.0178911  0.018298165   0.01453252 
 2423000   0.30017812  0.018110517  -0.75164009  -0.30139543  -0.20321327  0.019187354   0.01896453  0.016179666 
 2424000     0.300694  0.019648693  -0.75763861  -0.30662016  -0.20009913  0.019810101  0.019201577    0.0199344 
 2425000   0.30093593  0.016520151  -0.75296607  -0.30158474  -0.21202441  0.014604151  0.019069107  0.015887195 
 2426000   0.30096304   0.02008894  -0.75401264  -0.30259065  -0.19368291  0.021276772  0.021078228  0.017911819 
 2427000   0.30059432  0.018347996  -0.75013519  -0.29926625  -0.19979665  0.019021758   0.01822254  0.017799692 
 2428000   0.29810206  0.016270055   -0.7532562  -0.30612547  -0.21792097  0.017753889  0.016857609  0.014198666 
 2429000   0.29855059  0.016719776   -0.7542527  -0.30644921  -0.21580665  0.016668738  0.018326405  0.015164185 
 2430000   0.29630183  0.017012811   -0.7536777  -0.30924718  -0.21701599  0.017988509  0.016873196  0.016176729 
 2431000   0.29888339  0.014104162  -0.75291545  -0.30461278  -0.22815019  0.015109589  0.012991091  0.014211805 
 2432000    0.3011623  0.015851237  -0.75498093  -0.30326007   -0.2173261  0.016392646  0.014561834   0.01659923 
 2433000    0.2979819  0.017728781  -0.75607473  -0.30912424  -0.21301158  0.018198622  0.020170607  0.014817113 
 2434000   0.30015783  0.016783431  -0.75717534  -0.30696111  -0.21597346  0.014320946  0.017062399  0.018966947 
 2435000   0.29957308  0.018088728  -0.75552779  -0.30619065  -0.20812661  0.017666677  0.016333295  0.020266213 
 2436000   0.30449352  0.018050153    -0.754238  -0.29752056  -0.19966565  0.018703132  0.018874144  0.016573182 
 2437000   0.29697244  0.016115289   -0.7567283  -0.31129192  -0.22392645  0.015338322  0.013563849  0.019443695 
 2438000   0.29900948  0.017950604  -0.75799944  -0.30950765  -0.21219243  0.016757392  0.019869825  0.017224596 
 2439000   0.29893244  0.015903833  -0.76070258  -0.31232634  -0.22610724  0.014151188  0.017856324  0.015703987 
 2440000   0.30218593  0.017312775  -0.75779486  -0.30453862  -0.21068125  0.018107233  0.016218511  0.017612582 
 2441000   0.30164496  0.017495541  -0.75989749  -0.30745267  -0.21260447  0.021171173  0.014216856  0.017098593 
 2442000   0.29996913  0.018835646   -0.7581683   -0.3082371  -0.20612382  0.018425214  0.021416458  0.016665267 
 2443000   0.29968673  0.017776755  -0.75774211  -0.30823448  -0.21186174  0.016556549  0.018219308  0.018554407 
 2444000   0.29992242  0.016490391  -0.75814254  -0.30828141  -0.21888241  0.018745534  0.016441334  0.014284304 
 2445000   0.30442103  0.018104696  -0.75330918  -0.29670046  -0.19854986  0.018491301  0.017945808   0.01787698 
 2446000   0.30164088  0.018401116   -0.7503565   -0.2979178  -0.19816023  0.018122046  0.019408677  0.017672624 
 2447000   0.30370212  0.014978984  -0.75147097  -0.29594056  -0.21473532  0.015945082  0.015006842  0.013985027 
 2448000   0.30362927  0.018044405  -0.75129035  -0.29586922  -0.19804547  0.019392456  0.017802179   0.01693858 
 2449000   0.30040645  0.020599862  -0.74919765   -0.2986105  -0.18693291  0.019847914  0.020376848  0.021574824 
 2450000   0.29981387  0.018111436  -0.75049826  -0.30079993  -0.20261279  0.018907155  0.016236019  0.019191135 
 2451000   0.30273246  0.017539712  -0.74917712  -0.29510114  -0.20001347  0.016474085  0.017351788  0.018793265 
 2452000   0.29857312  0.015389366   -0.7471748  -0.29933752  -0.21590747  0.017106861  0.014968811  0.014092427 
 2453000   0.29940204  0.017817248  -0.75494488  -0.30586427  -0.20927201  0.017643487  0.018699211  0.017109045 
 2454000   0.29898797   0.01649177  -0.74831799  -0.29985846  -0.21045198  0.019174503  0.014535788  0.015765018 
 2455000   0.29694467  0.013614011  -0.74529668  -0.29990194   -0.2260966  0.014759525  0.013280183  0.012802326 
 2456000   0.30159191  0.015141388   -0.7439016  -0.29153636  -0.20945068  0.016256182  0.013889163  0.015278818 
 2457000   0.30166632  0.019180711   -0.7426549  -0.29017805  -0.18619407  0.018317013  0.020936721  0.018288399 
 2458000   0.30249396   0.01796616  -0.75141524  -0.29769699  -0.20029744  0.019938322  0.015856942  0.018103214 
 2459000   0.30197214  0.017290777  -0.75447993  -0.30154436  -0.20780624   0.01588634  0.019580568  0.016405422 
 2460000   0.30119539   0.01854628  -0.75127572  -0.29950523  -0.19896069   0.01662858  0.020890327  0.018119933 
 2461000   0.30138428  0.018156136  -0.74868061  -0.29662679  -0.19819732   0.02032892  0.016432879  0.017706608 
 2462000   0.30283753  0.016575944  -0.74818942  -0.29395583  -0.20409302  0.014544302  0.017780865  0.017402667 
 2463000   0.30323407  0.020964112  -0.74465865  -0.28983029    -0.176178  0.021457287  0.021410896  0.020024154 
 2464000   0.30008825  0.019054661  -0.74890077   -0.2987909  -0.19549027   0.01786807  0.021817856  0.017478057 
 2465000   0.30144679  0.013293856  -0.75049607   -0.2983485   -0.2262788  0.014115985  0.015884699 0.0098808846 
 2466000   0.29996828  0.015282438  -0.74992761  -0.29999769  -0.21714734   0.01665501  0.012772202  0.016420103 
 2467000   0.29841262  0.014488281  -0.75348962  -0.30589307  -0.22734806  0.014683877  0.014785057  0.013995908 
 2468000   0.29885367  0.016608333  -0.75336347  -0.30510538  -0.21506698  0.016121988  0.018442871   0.01526014 
 2469000   0.29923282  0.017603024  -0.75385003  -0.30502324  -0.20959234  0.019634222  0.016068943  0.017105907 
 2470000   0.29952419  0.015979407   -0.7535542  -0.30429038  -0.21766156  0.017944841  0.013759139  0.016234241 
 2471000   0.29658227   0.01480905  -0.75095484  -0.30610368   -0.2258197  0.013687424  0.014825262  0.015914464 
 2472000   0.30107006  0.016151404  -0.75015208  -0.29856957  -0.21100831   0.01698433  0.012996444  0.018473438 
 2473000    0.2985396  0.018450323  -0.74516826  -0.29738125  -0.19735691  0.016585603    0.0200621  0.018703266 
 2474000   0.30164644  0.018777191  -0.75021718  -0.29777014  -0.19597376  0.019883417  0.018452075  0.017996079 
 2475000   0.29519099  0.017131823  -0.75397758  -0.31121324  -0.21833686  0.016231194  0.018369782  0.016794493 
 2476000   0.29951615  0.016118412   -0.7463444  -0.29709264  -0.20971025  0.018646974  0.016213965  0.013494295 
 2477000   0.30195145  0.017224411  -0.75003206  -0.29712753   -0.2037492  0.015857901  0.018009045  0.017806288 
 2478000   0.30092927  0.015521431  -0.74855531  -0.29718398  -0.21303798  0.016963144  0.014131266  0.015469883 
 2479000   0.30051094  0.018126991  -0.75247825  -0.30173438  -0.20346291  0.017265718  0.016535916   0.02057934 
 2480000   0.29913354   0.01775329  -0.74992854  -0.30125066  -0.20500513  0.017762142  0.014974514  0.020523215 
 2481000   0.29742281   0.01805433  -0.74057169  -0.29445979  -0.19658224  0.020629573  0.016094539  0.017438878 
 2482000   0.29924772  0.016821966   -0.7438257  -0.29497656     -0.20378  0.014766358  0.019514201  0.016185338 
 2483000   0.30247201  0.018845047  -0.74168731  -0.28800197  -0.18583772  0.020336351  0.019025084  0.017173707 
 2484000   0.30335901  0.019283824   -0.7428283  -0.28781253  -0.18326955  0.021642365  0.017163301  0.019045805 
 2485000    0.2998278  0.018824852  -0.74464782  -0.29492861  -0.19287385  0.020213031  0.019083555   0.01717797 
 2486000   0.29904678  0.018200368  -0.74526631  -0.29671857  -0.19804931  0.019289339  0.016566636  0.018745128 
 2487000   0.29861331   0.01641263  -0.74648144  -0.29858388  -0.20960644  0.013642136  0.018052756  0.017542997 
 2488000   0.29725139  0.018649179  -0.75076694  -0.30491216  -0.20380976  0.018022947  0.017250838  0.020673751 
 2489000   0.30051363  0.018224882  -0.74767909  -0.29693117  -0.19812901   0.01723402  0.018513942  0.018926685 
 2490000   0.30090182  0.017183851  -0.75023763  -0.29890746  -0.20574902  0.017438473  0.017515599  0.016597482 
 2491000   0.29708115  0.019486896  -0.75614362  -0.31054418  -0.20490029    0.0214781  0.020041577   0.01694101 
 2492000   0.29796303  0.018783763  -0.75541896  -0.30849675  -0.20666474  0.018284454   0.02050748  0.017559355 
 2493000   0.30184367  0.013047566  -0.75158411  -0.29884124  -0.22810675  0.012503939  0.014288974  0.012349784 
 2494000   0.29830679  0.016852292  -0.74524847  -0.29781065  -0.20644968  0.017764511  0.015896002  0.016896362 
 2495000   0.29979504  0.017505986  -0.74700949  -0.29733942  -0.20243459  0.019286792  0.015908105  0.017323062 
 2496000   0.29898953  0.018726435  -0.74439449  -0.29593263  -0.19441141  0.020332811  0.016908381  0.018938112 
 2497000   0.29843966  0.016113556   -0.7460147  -0.29837759  -0.21102152  0.017260296  0.016084109  0.014996263 
 2498000   0.30049037  0.015265949  -0.74913486  -0.29842185  -0.21566089  0.017462958  0.011634171  0.016700716 
 2499000   0.29927846  0.017362569  -0.74254752  -0.29365228  -0.19952496  0.017507191  0.017004841  0.017575675 
 2500000   0.30016935  0.019221202  -0.74240081  -0.29216929   -0.1879658  0.021126002  0.018275347  0.018262257 
 2501000   0.30124365  0.016220381  -0.74232714  -0.29048425  -0.20254905  0.017550425  0.017888725  0.013221993 
 2502000   0.29993619  0.018165069  -0.74223845  -0.29235666  -0.19387876  0.019644568  0.015413309   0.01943733 
 2503000   0.30007687  0.016847901  -0.73964899  -0.28955619  -0.19821903  0.017092883  0.017485128  0.015965692 
 2504000   0.29864721  0.014294062  -0.74524172   -0.2972933  -0.21980121  0.014641261    0.0119295  0.016311425 
 2505000   0.29831652  0.016601999  -0.74396638  -0.29651398  -0.20650992   0.01859669  0.014109282  0.017100025 
 2506000   0.29951903  0.018993542  -0.74415296  -0.29489688   -0.1919276   0.01812818  0.020368728  0.018483716 
 2507000   0.30065826  0.016729752   -0.7443789  -0.29341406  -0.20271741  0.014634965  0.018042859  0.017511433 
 2508000   0.30009183  0.018098032  -0.74248658  -0.29237135  -0.19425687  0.015344161  0.018770434  0.020179501 
 2509000   0.30206092  0.016741933  -0.74162993   -0.2885612  -0.19779852  0.016137216  0.016006558  0.018082025 
 2510000   0.30147138  0.016133995  -0.73879038  -0.28660591  -0.19913903  0.014883442  0.016272555  0.017245989 
 2511000   0.30244793  0.017571707    -0.743564  -0.28991479  -0.19465368   0.01876767  0.016911309  0.017036141 
 2512000   0.30121697  0.017590992   -0.7456183  -0.29381545  -0.19844978  0.017842639  0.017824395  0.017105943 
 2513000   0.30241972  0.019281313  -0.75244957  -0.29884267  -0.19431331   0.01934581  0.018835754  0.019662375 
 2514000    0.3006101  0.016072034  -0.74997856  -0.29908595  -0.21195498  0.016305999  0.017891022  0.014019082 
 2515000    0.2994293  0.018015149  -0.74750628   -0.2983848  -0.20071966  0.017360647  0.015786401  0.020898398 
 2516000    0.3007905  0.015701365  -0.74549726  -0.29433406  -0.20921259   0.01444242  0.016452742  0.016208932 
 2517000   0.30179744  0.020093174  -0.74694525  -0.29427173  -0.18534103  0.020005409  0.022896853  0.017377262 
 2518000   0.30362292  0.020663842  -0.74996046  -0.29454886  -0.18252442  0.021434748  0.019808011  0.020748768 
 2519000   0.30148775  0.019909254  -0.74953048  -0.29732146  -0.18938785  0.019282955  0.020644124  0.019800684 
 2520000   0.30089938  0.019092404  -0.74566361  -0.29433711  -0.19083187  0.020636758  0.018245733  0.018394722 
 2521000    0.2998234  0.016995639  -0.74463542  -0.29492281  -0.20278472  0.016459795  0.018826774  0.015700349 
 2522000   0.29629269  0.015408136  -0.74484113  -0.30042431  -0.21689252  0.017391229  0.015568749  0.013264429 
 2523000   0.29985572  0.015135625  -0.74649858  -0.29673749  -0.21468305  0.013087058   0.01672978  0.015590038 
 2524000   0.29855516  0.012613477  -0.74634027  -0.29852992  -0.23014875  0.014227715  0.013136618  0.010476097 
 2525000   0.30033143  0.018716622  -0.74237973  -0.29190511  -0.19043709  0.018825393  0.019483673  0.017840799 
 2526000    0.3010208  0.016780067   -0.7420194  -0.29051077  -0.19954135  0.017733702  0.016255188  0.016351312 
 2527000    0.2991823  0.016954726  -0.74475367  -0.29600266  -0.20408636  0.015715881  0.017249178  0.017899119 
 2528000   0.29902262  0.016282935  -0.74422386  -0.29571237  -0.20743804  0.018254511  0.015622094  0.014972198 
 2529000   0.30438933  0.017586423  -0.74049548  -0.28393432  -0.18859342  0.017300776  0.015545737  0.019912757 
 2530000   0.29933916  0.015623918   -0.7329885  -0.28400221  -0.19930059  0.015558273  0.012756778  0.018556704 
 2531000    0.3012058  0.017308597  -0.73322781   -0.2814417  -0.18760697  0.015971598  0.019120685  0.016833508 
 2532000   0.30235327  0.015785647  -0.73283998  -0.27933276  -0.19375437  0.016993869  0.014603858  0.015759213 
 2533000    0.2987513  0.017700958  -0.72538905  -0.27728451  -0.18132268  0.018273217  0.015183726  0.019645931 
 2534000   0.30304745  0.017794502  -0.73488276  -0.28033431  -0.18386536  0.016926612  0.018220354   0.01823654 
 2535000   0.30056472  0.017598236  -0.73858469  -0.28776016  -0.19235522  0.015490155  0.017618944  0.019685609 
 2536000   0.29916016  0.017606539  -0.73163692  -0.28291912  -0.18746917  0.018414622  0.017684732  0.016720264 
 2537000   0.29801824  0.017549711  -0.73141076  -0.28440576  -0.18926389  0.018907433  0.017080822  0.016660878 
 2538000   0.30104728  0.017436002  -0.72805281  -0.27650446  -0.18197903  0.016285739  0.016404502  0.019617766 
 2539000   0.29873234  0.017003119  -0.73245167  -0.28437557  -0.19219693  0.017642689  0.017175409   0.01619126 
 2540000   0.29925636  0.019288204  -0.73549858  -0.28663648  -0.18206975  0.018713824  0.019374395  0.019776393 
 2541000   0.30074671  0.017898956  -0.73574331  -0.28464579  -0.18761057  0.019178809  0.015003837  0.019514223 
 2542000   0.30015044  0.017982467  -0.73102715  -0.28082401  -0.18333605  0.017358758  0.018085664   0.01850298 
 2543000   0.30190064  0.019360585  -0.73134795  -0.27851963  -0.17356051  0.020880606  0.018774631  0.018426517 
 2544000   0.29887161  0.017775846  -0.73542568  -0.28714068  -0.19077287  0.015898449  0.018845256  0.018583832 
 2545000   0.29875306  0.017350662  -0.73374354  -0.28563636  -0.19157359  0.019076664  0.015624299  0.017351022 
 2546000   0.29883852  0.015468574  -0.73719795  -0.28896259  -0.20510314  0.017377332   0.01560638  0.013422011 
 2547000   0.29754724  0.016161438  -0.73567753  -0.28937897  -0.20176332  0.016437642  0.016443242   0.01560343 
 2548000   0.29853373   0.01707158  -0.73609281   -0.2883146  -0.19576481  0.016488535  0.018161628  0.016564579 
 2549000   0.29954476  0.015430076  -0.73401042  -0.28471574    -0.201065  0.017799887  0.014571339  0.013919003 
 2550000   0.29617181  0.015555956  -0.73212102  -0.28788553  -0.20355236  0.015150256  0.014675638  0.016841974 
 2551000   0.29844875  0.017801426   -0.7309805  -0.28332976  -0.18682327  0.019706717  0.017226242   0.01647132 
 2552000   0.30130238  0.017675092  -0.73150573  -0.27957476  -0.18375316  0.015500191  0.017443367  0.020081719 
 2553000   0.29970913   0.01859804  -0.72913632  -0.27959511  -0.17876995  0.018052188  0.018608528  0.019133405 
 2554000   0.30059421  0.016819573  -0.73289397   -0.2820252  -0.19084161  0.016786953  0.017813854  0.015857913 
 2555000   0.30035715  0.018933309  -0.72883805  -0.27832484   -0.1756821  0.021354215    0.0186838  0.016761911 
 2556000   0.30268993  0.019016027  -0.73073518  -0.27672299  -0.17363181  0.018976802   0.01982882  0.018242459 
 2557000   0.30159504  0.017302009   -0.7332831  -0.28091316  -0.18711415  0.015823321  0.015342931  0.020739776 
 2558000   0.30166487  0.018488512  -0.73525812  -0.28278344  -0.18255207  0.018385539   0.01862865  0.018451349 
 2559000   0.30255527  0.018024431  -0.73340254  -0.27959233  -0.18187688  0.018319399  0.016503087  0.019250806 
 2560000   0.30182791  0.016069242  -0.73325943   -0.2805402  -0.19342436  0.016139514  0.017331876  0.014736335 
 2561000   0.30082686  0.018406972   -0.7298477  -0.27862997  -0.17884065  0.018804334  0.016566563  0.019850018 
 2562000   0.30067248  0.019670096  -0.73232558  -0.28133941  -0.17470234  0.020593437  0.018366935  0.020049917 
 2563000   0.30065028  0.019064451  -0.73567835  -0.28472549  -0.18137179   0.01831784  0.018138051  0.020737461 
 2564000   0.29997551  0.018214674  -0.73147542  -0.28153465  -0.18278783  0.016752817  0.019910672  0.017980534 
 2565000      0.30053  0.016015376  -0.73453592  -0.28376346  -0.19693965   0.01688597  0.015163444  0.015996714 
 2566000   0.29690331  0.019846941    -0.728068  -0.28273531  -0.17513951  0.016601204  0.023865446  0.019074174 
 2567000   0.29890759  0.018211573  -0.73471498  -0.28637602  -0.18764601  0.017754249  0.016695797  0.020184671 
 2568000   0.29846106  0.017405028  -0.72979736  -0.28212815  -0.18777065  0.017057685  0.018639196  0.016518201 
 2569000   0.29780772  0.017106297   -0.7271428  -0.28045355  -0.18771555  0.019745909  0.016874948  0.014698036 
 2570000   0.30001722  0.018813071  -0.72620282  -0.27619949  -0.17420859  0.019848768  0.020015611  0.016574835 
 2571000   0.29956219  0.017851603  -0.73292899  -0.28360818  -0.18682967  0.018768784  0.016713707  0.018072319 
 2572000   0.30094104  0.018356171  -0.73134277  -0.27995378  -0.18043986  0.018614328  0.019919562  0.016534623 
 2573000   0.30068951  0.018876924  -0.72496795  -0.27395624  -0.17161918  0.022092859  0.017365778  0.017172134 
 2574000   0.29951315  0.017695193  -0.72844683  -0.27919957    -0.183269  0.019126531  0.017783863  0.016175184 
 2575000   0.30090682  0.017014241  -0.72978616   -0.2784485  -0.18620956  0.018143095  0.015918736  0.016980893 
 2576000   0.30050732  0.016891261  -0.73109984   -0.2803614  -0.18878917  0.016661901  0.016344901  0.017666981 
 2577000   0.29632504  0.013641745  -0.72809363  -0.28362829  -0.20967259  0.014382303  0.012951106  0.013591827 
 2578000   0.29837934  0.017676261   -0.7314271  -0.28388046  -0.18805252  0.016209742   0.01930842  0.017510622 
 2579000   0.29854501  0.016849284  -0.73142514  -0.28363002  -0.19228536  0.015519282  0.016032088  0.018996483 
 2580000   0.29629739  0.017514828  -0.72868922  -0.28426535  -0.18931259  0.017251794  0.016768702  0.018523988 
 2581000   0.30161511   0.01807004  -0.72365155  -0.27125151  -0.17328879  0.017170493  0.016496708  0.020542919 
 2582000   0.30072587   0.01469545  -0.72625627  -0.27519002  -0.19552189  0.014506331  0.013239197  0.016340823 
 2583000    0.3015206  0.017765415  -0.72814734  -0.27588905  -0.17957779  0.017613974   0.01540299  0.020279281 
 2584000   0.30395835  0.018166441  -0.72813467  -0.27221995  -0.17373462  0.020190721  0.018632852   0.01567575 
 2585000   0.29746111  0.015000051  -0.73144872  -0.28527937  -0.20395991  0.017582696  0.013968678   0.01344878 
 2586000    0.3003627  0.017539245  -0.73210254  -0.28158103   -0.1864959  0.017243496  0.017492152  0.017882086 
 2587000   0.29817456  0.016788045    -0.732461  -0.28522152  -0.19420885  0.016064069  0.017210543  0.017089524 
 2588000   0.29819952  0.015218483  -0.73420506  -0.28692815  -0.20442451  0.012814289  0.014630579  0.018210582 
 2589000   0.29942751  0.013434856  -0.72740415  -0.27828534  -0.20545124  0.014628141  0.012598658  0.013077769 
 2590000   0.29845718  0.015279437  -0.72228472  -0.27462133  -0.19178724  0.017361899  0.014052476  0.014423935 
 2591000   0.29800883  0.014484614  -0.72256025  -0.27556936  -0.19704423  0.013638144  0.015540564  0.014275133 
 2592000   0.30167119  0.017241481  -0.73035264  -0.27786848  -0.18439761  0.014324453  0.019978932  0.017421059 
 2593000    0.2983831  0.016783709  -0.72823852  -0.28068625  -0.18969709  0.016028447  0.018006172  0.016316508 
 2594000   0.29771379  0.014508038  -0.73051487  -0.28396651   -0.2053144  0.013835007  0.016891499  0.012797607 
 2595000   0.29967008  0.018153356  -0.73165403  -0.28217138  -0.18375699  0.022422672  0.015744359  0.016293036 
 2596000    0.2992942  0.018034695  -0.73132804  -0.28240918  -0.18463808  0.017737522  0.018325969  0.018040593 
 2597000   0.30212577  0.017653133   -0.7279137   -0.2747477  -0.17904515  0.016107597  0.017913389  0.018938413 
 2598000   0.30131468  0.017874393  -0.72550596  -0.27355653  -0.17665447  0.017490097  0.019702284  0.016430798 
 2599000   0.29898512  0.018471539  -0.72571026    -0.277255  -0.17711565  0.020624579  0.016481612  0.018308425 
 2600000   0.30040692  0.017843473  -0.72784587  -0.27725802  -0.18052359   0.01552547  0.018084408  0.019920542 
 2601000   0.30039541  0.014482702  -0.72373444  -0.27316386   -0.1946491  0.010808614  0.016428737  0.016210754 
 2602000   0.29808546  0.017957794  -0.72138676  -0.27428093  -0.17692673  0.018119915  0.017096793  0.018656672 
 2603000   0.30084337  0.020297054  -0.72222289  -0.27098041  -0.16094442  0.023595415  0.019749795  0.017545953 
 2604000   0.29926282  0.017593005  -0.72029037  -0.27141858    -0.176042  0.018586407  0.015223524  0.018969083 
 2605000   0.29914515   0.01514678  -0.72271007  -0.27401479  -0.19189987  0.018268658  0.012318276  0.014853408 
 2606000   0.29990323  0.017099345  -0.72305691  -0.27322455  -0.18052424  0.015012803  0.017995236  0.018289996 
 2607000   0.30036766  0.020981233  -0.72431505  -0.27378609  -0.16004098    0.0234251  0.016804448  0.022714152 
 2608000   0.30151744   0.01813339  -0.72360642  -0.27135288  -0.17304672  0.015849242  0.019140418  0.019410508 
 2609000   0.30128318  0.019108514  -0.72259966  -0.27069749  -0.16710491  0.019258617  0.020730981  0.017335944 
 2610000   0.29747554  0.017351677  -0.72274138  -0.27655037   -0.1824821  0.016472221  0.018594114  0.016988697 
 2611000   0.29803576  0.017932791  -0.72197534  -0.27494405  -0.17772539  0.018891471  0.014844646  0.020062256 
 2612000   0.29859727   0.01728623  -0.72469594  -0.27682243  -0.18310897  0.019897313  0.016550017  0.015411362 
 2613000   0.29973839  0.017119736   -0.7239971    -0.274412  -0.18160115  0.018416989  0.017290651  0.015651568 
 2614000   0.30071721  0.021402117  -0.72375657  -0.27270332  -0.15667648  0.019699198  0.020319044  0.024188109 
 2615000   0.30051579  0.016520728  -0.72362744  -0.27287629  -0.18331283  0.016924162  0.014487751  0.018150271 
 2616000    0.2998716  0.017593084  -0.72348187  -0.27369696  -0.17831995  0.018228278  0.014254912  0.020296061 
 2617000   0.30319439  0.018489937  -0.72446062  -0.26969178  -0.16945268  0.018230659  0.019101547  0.018137604 
 2618000    0.3031377  0.016740102  -0.72451411  -0.26983029  -0.17907753  0.019172963  0.014206196  0.016841147 
 2619000   0.30141666  0.017931911  -0.72683521  -0.27473282  -0.17751893  0.018196305  0.017700664  0.017898765 
 2620000    0.2995829   0.01636326  -0.72522316  -0.27587127  -0.18716148  0.016547466  0.016514432   0.01602788 
 2621000   0.29761817  0.017144408  -0.72584236  -0.27943742  -0.18649281  0.017669462  0.017281582  0.016482181 
 2622000   0.30030273  0.016924898  -0.72964279  -0.27921121  -0.18745663  0.014923075  0.018576553  0.017275064 
 2623000   0.30104871  0.015891446  -0.72823777  -0.27668728  -0.19053533  0.017724313  0.014241683  0.015708341 
 2624000   0.30242715  0.019477725  -0.72894651  -0.27532847   -0.1697343  0.018951014  0.022236155  0.017246007 
 2625000    0.2997878  0.019961124  -0.72743578  -0.27777656  -0.16956175  0.020622438  0.020230526  0.019030409 
 2626000   0.30030046  0.019016106  -0.72709092  -0.27666275  -0.17357114  0.022451667  0.016356037  0.018240614 
 2627000   0.30215376  0.019137295  -0.72984494  -0.27663695  -0.17288835   0.01932868  0.019449699  0.018633506 
 2628000   0.30241584  0.020062917  -0.72945283  -0.27585175   -0.1670851    0.0226882  0.017194616  0.020305934 
 2629000   0.30013845  0.016235703  -0.72423372  -0.27404856  -0.18603029  0.016014843  0.015446752  0.017245514 
 2630000   0.30122893  0.018552036  -0.72349766  -0.27167686  -0.17110111  0.016827078  0.020231184  0.018597847 
 2631000    0.2970124  0.014982952  -0.72538947  -0.27989314  -0.19866638  0.014319915  0.014809005  0.015819935 
 2632000   0.29992884  0.016205935  -0.72369082  -0.27382006  -0.18596317   0.01625072  0.016990919  0.015376165 
 2633000   0.30124703   0.01753532  -0.72798167  -0.27613373  -0.18106987  0.017896618  0.017988858  0.016720484 
 2634000    0.3023323  0.019824767  -0.72901172  -0.27553594  -0.16806035   0.01893787  0.018330365  0.022206067 
 2635000   0.30270939  0.018599164    -0.729742  -0.27570062  -0.17486937  0.017160985  0.019311772  0.019324734 
 2636000   0.30106976  0.017619336  -0.72424728  -0.27266521  -0.17714589  0.017978242  0.015286976  0.019592788 
 2637000   0.30004901  0.016754188  -0.71847403  -0.26842301  -0.17759389  0.014492733  0.017507371  0.018262459 
 2638000   0.30077529  0.016059526   -0.7231468  -0.27200642  -0.18494325  0.018712451  0.012882963  0.016583164 
 2639000   0.30002346  0.017422714  -0.72144306  -0.27143037  -0.17697699  0.015570529  0.019259193   0.01743842 
 2640000   0.29982287  0.019060681  -0.72601363   -0.2763018  -0.17296854  0.017384721  0.020156252  0.019641071 
 2641000   0.30053981  0.018697666  -0.72333695  -0.27254978  -0.17118452  0.018777174  0.017547879  0.019767945 
 2642000   0.30071863  0.018793307  -0.72134184  -0.27028645   -0.1684027  0.017141507  0.021111926  0.018126488 
 2643000   0.30065992  0.018445674  -0.72600654  -0.27503921  -0.17504007  0.018044182  0.018841896  0.018450944 
 2644000   0.29959921  0.017223124  -0.72863032  -0.27925397  -0.18588261  0.017837433  0.017369397  0.016462542 
 2645000   0.30218437  0.014485869  -0.72829485  -0.27504095  -0.19650902  0.014913685   0.01268558  0.015858344 
 2646000   0.29931331  0.017907505  -0.72250722   -0.2735597  -0.17647813  0.014455741  0.020381455  0.018885319 
 2647000   0.29832088  0.018053072  -0.72394182  -0.27648288  -0.17861215  0.020847219  0.017695149  0.015616848 
 2648000   0.29424274  0.018371381  -0.72236646  -0.28102441  -0.18142804  0.021671343  0.016239773  0.017203027 
 2649000   0.30001542  0.018650845  -0.72914556  -0.27914493  -0.17803351  0.017382892  0.016897765  0.021671878 
 2650000   0.30013415  0.016725003  -0.72776978  -0.27759106  -0.18692016  0.017608847  0.016393319  0.016172843 
 2651000   0.29939736  0.016751925  -0.72510598  -0.27603239  -0.18521554  0.015755856  0.018537706  0.015962213 
 2652000   0.30299139   0.01935786  -0.72294323  -0.26847886  -0.16353451  0.021511012  0.019520455  0.017042115 
 2653000   0.29764979  0.019587933  -0.72395757  -0.27750521  -0.17131358   0.02056253  0.020238399  0.017962869 
 2654000   0.29955353  0.013164822  -0.72305305  -0.27374522  -0.20237506  0.011189057  0.015714526  0.012590882 
 2655000   0.30338507  0.017063104  -0.72082527  -0.26577042  -0.17326658  0.018363274  0.016339819  0.016486217 
 2656000   0.30194907  0.017661264  -0.72032964  -0.26742867  -0.17168204  0.016549063  0.016606398   0.01982833 
 2657000   0.29946979  0.017610293  -0.72268412   -0.2735019   -0.1780316  0.016444366   0.01915608  0.017230434 
 2658000   0.29992284  0.016722097  -0.72822415  -0.27836238  -0.18770724  0.014483404  0.017813881  0.017869006 
 2659000   0.30348276  0.018446881  -0.73312807   -0.2779267  -0.17792102  0.017461964  0.017978862  0.019899816 
 2660000   0.30103248  0.018993187  -0.73003506  -0.27850891  -0.17554156  0.018049795   0.01903611  0.019893655 
 2661000   0.30174329  0.019349724  -0.72985499  -0.27726268  -0.17236244  0.019272939  0.021312025  0.017464208 
 2662000   0.30087427  0.018508307  -0.72366239  -0.27237356  -0.17203487  0.021613034   0.01647028  0.017441607 
 2663000   0.30072225  0.017231431  -0.72422616  -0.27316534  -0.17974895  0.017339212  0.017035376  0.017319704 
 2664000   0.30396071  0.019839408   -0.7254149  -0.26949664  -0.16194169  0.021170161  0.017966463  0.020381599 
 2665000   0.30052218  0.019958334  -0.73009421  -0.27933348  -0.17113379  0.020274273  0.018283081  0.021317647 
 2666000   0.30091735  0.018110079  -0.72680897  -0.27545552  -0.17727574   0.01673804   0.01975703  0.017835167 
 2667000    0.2994607  0.017679584  -0.72430208  -0.27513349  -0.17928754   0.01551812  0.017165089  0.020355544 
 2668000   0.29927191  0.018109131  -0.72613062   -0.2772452  -0.17907056  0.021998395  0.016055522  0.016273475 
 2669000   0.30232067  0.019638733  -0.72324129  -0.26978296  -0.16331592   0.02005626  0.020671351  0.018188587 
 2670000   0.30085468  0.017066545  -0.72202181  -0.27076235  -0.17823985  0.015954741  0.020209066  0.015035829 
 2671000   0.29917135  0.019175768  -0.72328684  -0.27455225  -0.17059507   0.01843576  0.018016633  0.021074911 
 2672000   0.29836598  0.017798024  -0.72634192  -0.27881532  -0.18232727  0.019102469  0.016413172   0.01787843 
 2673000   0.29815459    0.0194651  -0.72435572  -0.27714619  -0.17162046  0.020838007  0.017362565  0.020194727 
 2674000   0.29850222  0.018169174  -0.72594968  -0.27821874  -0.17971858  0.020262966  0.016106245  0.018138312 
 2675000   0.29916198  0.016505388  -0.72443648  -0.27571594  -0.18623563  0.017330556  0.017121041  0.015064568 
 2676000   0.29956193  0.016091379  -0.72713846  -0.27781804  -0.19058219  0.015131143  0.016539005   0.01660399 
 2677000   0.29988903  0.019804499  -0.72890172  -0.27909067  -0.17172497  0.018822737  0.022122493  0.018468268 
 2678000   0.29971803  0.017184229  -0.72709964  -0.27754507  -0.18438458   0.01804987  0.015143811  0.018359007 
 2679000   0.29740937    0.0185668  -0.72670933  -0.28061759  -0.17996179  0.020377513  0.016197961  0.019124926 
 2680000   0.29969017  0.017760271  -0.72607945  -0.27656667   -0.1802833  0.018273943  0.018274811  0.016732059 
 2681000   0.29962967  0.016863635  -0.72167409  -0.27225206   -0.1808296  0.016300456   0.01569425  0.018596198 
 2682000   0.30152116  0.015285323  -0.72205247  -0.26979334  -0.18692735  0.016541916  0.014766532  0.014547519 
 2683000   0.29947089  0.015888285  -0.71842286  -0.26923898  -0.18310417  0.015179559  0.015637527  0.016847768 
 2684000   0.29957512  0.018105709  -0.72596383  -0.27662363  -0.17846754  0.016446355  0.017171063  0.020699709 
 2685000    0.2998217  0.016442564   -0.7269172  -0.27720713  -0.18806741  0.017794457  0.015370022  0.016163213 
 2686000   0.29936691  0.017425831  -0.72906625  -0.28003833  -0.18556805   0.01714864  0.016999478  0.018129374 
 2687000    0.2980231  0.017546865  -0.72400501  -0.27699271  -0.18186627  0.017359908  0.017558993  0.017721696 
 2688000   0.29760602  0.015694818  -0.72070446  -0.27431774  -0.18923176  0.017703477  0.013663176  0.015717802 
 2689000    0.2983055  0.018586193  -0.71988113  -0.27244524  -0.17168431  0.019924801  0.018959085  0.016874694 
 2690000   0.30070518  0.018949136  -0.72422665  -0.27319143  -0.17046289  0.019472737  0.017980538  0.019394132 
 2691000   0.30074892  0.017400975  -0.72744805  -0.27634722  -0.18201169  0.020270578  0.015868453  0.016063895 
 2692000   0.29855382  0.023796844  -0.72680668  -0.27899834  -0.14998902  0.023503619  0.023669092  0.024217821 
 2693000   0.30086591  0.017510728  -0.72654453  -0.27526822  -0.18033769  0.017923252  0.016816736  0.017792197 
 2694000   0.30081646  0.020935337  -0.72325483   -0.2720527   -0.1585564  0.021048567  0.021558967  0.020198476 
[...]
 2841000   0.29990933  0.015087139  -0.72123105  -0.27138955  -0.18959797  0.015789925  0.016288035  0.013183457 
 2842000   0.30115588  0.016646436  -0.72312874   -0.2714175  -0.18117254  0.015725768  0.019394346  0.014819195 
 2843000   0.30187893  0.020382622  -0.72223407  -0.26943833  -0.15893846  0.021611422  0.019275456  0.020260987 
 2844000   0.30280354  0.017393496  -0.71835705  -0.26417445  -0.16987946  0.019456876  0.015437406  0.017286208 
 2845000   0.29890491  0.016633584  -0.71583111  -0.26749616  -0.17732087  0.018881345  0.013443856   0.01757555 
 2846000    0.2972335  0.017418347  -0.71717618  -0.27134822  -0.17691852  0.014965882  0.017904547  0.019384611 
 2847000   0.30043816  0.017197156  -0.72311579  -0.27248108  -0.17925051  0.018505537  0.015836537  0.017249394 
 2848000   0.30260555  0.019404022  -0.72463549  -0.27074986  -0.16555525  0.021502229  0.020540644  0.016169192 
 2849000   0.29928094   0.01834605  -0.72287413  -0.27397516  -0.17451611  0.020295327  0.017417864   0.01732496 
 2850000   0.29977938  0.018193219  -0.72316163  -0.27351504  -0.17488454  0.019198295  0.017534528  0.017846833 
 2851000   0.29991524  0.019508598  -0.72592149  -0.27607112  -0.17030958  0.021183849  0.020716646  0.016625299 
 2852000   0.29811565  0.016314377  -0.72654894  -0.27939782  -0.19095304  0.019380346  0.013352593  0.016210192 
 2853000   0.29677093  0.018438698   -0.7231384  -0.27800427  -0.17804296  0.017394657  0.018453651  0.019467786 
 2854000   0.29839058  0.019651538  -0.71834008  -0.27077659  -0.16424013  0.020974738  0.020650195   0.01732968 
 2855000   0.30171555  0.015616832  -0.71570368  -0.26315299   -0.1784898  0.014581006  0.015899254  0.016370237 
 2856000   0.29646689  0.015643544  -0.71742309    -0.272745  -0.18793699  0.016386921  0.014941599  0.015602112 
 2857000    0.2971524  0.012926427   -0.7181127  -0.27240639  -0.20232863   0.01243469  0.012420095  0.013924497 
 2858000   0.29681292  0.016970502  -0.72013548  -0.27493835  -0.18293654   0.01359677  0.017648734     0.019666 
 2859000   0.29728675  0.018273851  -0.72054738  -0.27463955  -0.17557192  0.020609504  0.017637083  0.016574966 
 2860000   0.29854944  0.017196815  -0.72601267  -0.27821091  -0.18498219  0.017858546  0.015551094  0.018180803 
 2861000   0.29834326  0.019349917  -0.72352555  -0.27603304  -0.17113175  0.019234585  0.019050686   0.01976448 
 2862000   0.29937807  0.014936516  -0.72385245  -0.27480781  -0.19383279  0.014116355  0.014195592  0.016497602 
 2863000   0.30018096  0.018221009  -0.71745639  -0.26720746  -0.16842629  0.017689628  0.017462995  0.019510404 
 2864000   0.30086667   0.01778606  -0.71607408  -0.26479664  -0.16837346  0.018104336  0.018014397  0.017239448 
 2865000   0.30037093  0.020669434  -0.71749831  -0.26696445  -0.15490969   0.02243951  0.019585027  0.019983763 
 2866000    0.3019109  0.018803749  -0.71599767  -0.26315397  -0.16121361  0.018525913  0.019208949  0.018676386 
 2867000   0.30147648  0.015305842  -0.71600614  -0.26381404  -0.18083681  0.016512979  0.017331199  0.012073346 
 2868000   0.29637149  0.017626928  -0.71088513  -0.26635012  -0.17078963  0.016930051  0.016876869  0.019073865 
 2869000   0.29799204  0.016379803  -0.71024228  -0.26327656  -0.17447709   0.01537268  0.017732161  0.016034568 
 2870000   0.30574426  0.018870865  -0.71108552  -0.25249207  -0.15018786  0.016965035  0.018694174  0.020953385 
 2871000   0.30036058   0.01766089  -0.71395671  -0.26343836  -0.16769375  0.019058663  0.016178786  0.017745222 
 2872000   0.29940333  0.018297025  -0.71328943  -0.26420689  -0.16501361  0.019519541  0.017371302  0.018000233 
 2873000   0.30064758  0.019807369  -0.71439813   -0.2634493  -0.15606804  0.020288586  0.022318959  0.016814561 
 2874000   0.29847683  0.017879535  -0.71109073  -0.26339787  -0.16646793  0.017174973  0.019184239  0.017279392 
 2875000   0.29813756  0.015239824    -0.712831  -0.26564703   -0.1830277  0.014826397   0.01576776  0.015125315 
 2876000   0.29952057  0.017837822  -0.71205332  -0.26279494  -0.16609113  0.017689285  0.017778385  0.018045797 
 2877000   0.29934257   0.01909003  -0.71599065  -0.26699924  -0.16350687  0.020819593   0.01661649  0.019834006 
 2878000   0.29927408  0.017400001  -0.71544472  -0.26655604  -0.17222579  0.017603229  0.017361586  0.017235188 
 2879000    0.3015672  0.019118183  -0.71791088  -0.26558269  -0.16193769  0.017143393  0.020012329  0.020198826 
 2880000   0.30040563  0.017663525  -0.71775117  -0.26716525  -0.17140636  0.018883479  0.016846783  0.017260314 
 2881000   0.29874154  0.018484971  -0.71346471   -0.2653748  -0.16516263  0.020001962  0.018030621  0.017422329 
 2882000   0.30114355  0.018932212   -0.7122303  -0.26053755  -0.15790076  0.019973397  0.019700686  0.017122553 
 2883000   0.30103122  0.016546272  -0.70910451  -0.25758025   -0.1678783  0.018103651  0.014048774  0.017486391 
 2884000   0.29886251  0.016217026  -0.70817901  -0.25990766  -0.17199064  0.016446427  0.018732192  0.013472459 
 2885000   0.29810347  0.017715118  -0.70908976  -0.26195691  -0.16591832  0.018348996  0.018677684  0.016118674 
 2886000   0.29954345  0.015869329  -0.71395601   -0.2646633  -0.17863125  0.017101359  0.016492421  0.014014206 
 2887000   0.29857928  0.016798922  -0.71440648  -0.26655995  -0.17548831  0.016610728  0.017956258  0.015829781 
 2888000   0.29887686   0.01862817  -0.71151409  -0.26322122  -0.16223272    0.0199586  0.016656046  0.019269863 
 2889000   0.30284112  0.018115553   -0.7145862  -0.26034724  -0.16213778  0.018544863  0.018953132  0.016848662 
 2890000   0.30165038  0.019216806   -0.7138991  -0.26144615  -0.15726649  0.020375128  0.018981658  0.018293633 
 2891000   0.30121218  0.018423364    -0.715748  -0.26395232  -0.16407413  0.016931567   0.02052464  0.017813885 
 2892000   0.29958705  0.018874022  -0.71364399  -0.26428589  -0.16196455  0.017745276  0.020131818  0.018744973 
 2893000   0.29985439  0.018590168  -0.71686561  -0.26710652  -0.16632403  0.020980114  0.018746779  0.016043612 
 2894000   0.29956792  0.016913408  -0.71591271   -0.2665833    -0.174891  0.018183175  0.013958025  0.018599025 
 2895000    0.2956009  0.017797905  -0.71694821  -0.27356902  -0.17708162  0.015836052  0.020119714   0.01743795 
 2896000   0.29825231  0.018287768  -0.71327726  -0.26592116  -0.16677808  0.018155718  0.019220241  0.017487345 
 2897000   0.29840933  0.017980552   -0.7156462  -0.26805458  -0.17057699  0.017864546  0.018096514  0.017980598 
 2898000   0.29926455  0.018665734  -0.71747238  -0.26859801  -0.16740586  0.017568007  0.019745087  0.018684108 
 2899000   0.29845614  0.018181956  -0.71934528  -0.27168346  -0.17311401  0.019162754  0.017401111  0.017982001 
 2900000   0.30304796  0.018821915  -0.72093504  -0.26638582  -0.16434698  0.019057997  0.020706783  0.016700965 
 2901000   0.30093777  0.017842137  -0.71912545  -0.26774136  -0.17101416  0.017989244  0.017522278  0.018014889 
 2902000   0.30124778  0.017687746  -0.72295055  -0.27110148  -0.17521128  0.018192979  0.017194486  0.017675773 
 2903000   0.30114548  0.018268158  -0.72116754  -0.26947191  -0.17043514  0.017992157  0.018532331  0.018279986 
 2904000   0.29968835  0.017117172  -0.72276605    -0.273256  -0.18045904  0.019228682  0.014660044  0.017462792 
 2905000   0.29939127  0.018044111  -0.72759801  -0.27853357  -0.18071142  0.019167127  0.016588357  0.018376849 
 2906000   0.29839918   0.01784886  -0.72972533  -0.28214894   -0.1853853  0.019045977  0.015893278  0.018607326 
 2907000   0.29751468  0.017034072  -0.72957858  -0.28332887  -0.19098242  0.017355557  0.017078384  0.016668275 
 2908000   0.29874388   0.01933944  -0.72757659  -0.27948318  -0.17463869  0.018861585  0.019695612  0.019461123 
 2909000   0.29873183   0.01774185  -0.72785488  -0.27977954  -0.18359603  0.018521236  0.017372827  0.017331487 
 2910000    0.2989244  0.016529411  -0.72447195  -0.27610777  -0.18649723  0.014744414  0.019510883  0.015332936 
 2911000   0.29781608  0.019321046  -0.72002781  -0.27332602  -0.16858125  0.019321805  0.020488406  0.018152928 
 2912000   0.29732801  0.015037565  -0.71941265  -0.27344294  -0.19192012  0.016235948  0.017338366   0.01153838 
 2913000   0.29581728  0.015229888  -0.71858319  -0.27487945  -0.19231399  0.014072674  0.015293474  0.016323517 
 2914000   0.30005312  0.015883236   -0.7238809  -0.27382373  -0.18771629  0.016957597  0.014626972   0.01606514 
 2915000   0.30109571  0.017066441  -0.72784631  -0.27622532  -0.18370339  0.018678783  0.016926985  0.015593556 
 2916000   0.30057714  0.017689904  -0.72528103  -0.27443787  -0.17853597  0.018258303  0.019861318  0.014950091 
 2917000    0.2999065  0.016474001  -0.72609454  -0.27625728  -0.18694713  0.015938815  0.016058135  0.017425053 
 2918000   0.30005278  0.019329928  -0.72605679  -0.27600012  -0.17120719  0.021263232  0.017653309  0.019073244 
 2919000      0.30087    0.0172127  -0.72959161  -0.27830918  -0.18499434  0.016077243  0.018170202  0.017390654 
 2920000   0.30007402  0.019972709  -0.72613366  -0.27604513  -0.16776751  0.021057611  0.017550725  0.021309791 
 2921000   0.30274742  0.017919494  -0.72736255  -0.27326413  -0.17611757  0.016898972   0.01876202  0.018097489 
 2922000   0.29917995  0.017131891  -0.72112642  -0.27237894  -0.17950219  0.019195181  0.018514457  0.013686037 
 2923000   0.30076267   0.01861076    -0.724196  -0.27307455  -0.17218044  0.020024747  0.015961017  0.019846516 
 2924000   0.30001116  0.017293141  -0.72770112  -0.27770688  -0.18395594  0.017947722  0.017920989   0.01601071 
 2925000   0.30056812  0.017794085  -0.72705749  -0.27622786  -0.17976117  0.021051851  0.015547259  0.016783145 
 2926000   0.29989422  0.017105368  -0.72625171  -0.27643288  -0.18369991  0.018628204   0.01786119   0.01482671 
 2927000   0.29742167  0.014932203  -0.72436661  -0.27825641  -0.19730478  0.015226655  0.015340038  0.014229914 
 2928000   0.29937668  0.018773649  -0.72294201  -0.27389945  -0.17212227  0.019268533  0.020323928  0.016728485 
 2929000   0.29919783  0.017385809  -0.71945182  -0.27067752  -0.17642421  0.017115273  0.020200111  0.014842043 
 2930000   0.30239906  0.020456463  -0.71908847  -0.26551255  -0.15461237  0.021373031  0.019645433  0.020350923 
 2931000   0.30019701  0.017191299  -0.72083001  -0.27055701  -0.17735819  0.016726726   0.01999942   0.01484775 
 2932000    0.3009433  0.016342724  -0.72224051  -0.27084813  -0.18224967  0.018671275  0.015250214  0.015106683 
 2933000   0.30148223  0.020721266  -0.72151942  -0.26931869  -0.15698294  0.020317315   0.02066268  0.021183804 
 2934000    0.3010321  0.018840736   -0.7166162  -0.26509063  -0.16294975  0.019351757  0.018502749  0.018667703 
 2935000   0.30115844  0.021344821  -0.71358296  -0.26186789  -0.14615167   0.02096394  0.020260199  0.022810324 
 2936000    0.2975172  0.015377709  -0.71813518  -0.27188169  -0.18851485  0.016339267  0.014160817  0.015633041 
 2937000   0.29892666  0.016951048  -0.71711195  -0.26874438  -0.17684802  0.016467643  0.016080732  0.018304771 
 2938000   0.30074481  0.019389414   -0.7181164  -0.26702175  -0.16190634  0.018347685  0.019986306  0.019834251 
 2939000   0.30148548  0.019380384  -0.71757602  -0.26537042  -0.16030396  0.021676161  0.017768676  0.018696317 
 2940000    0.3008231  0.017901223  -0.71579527  -0.26458318  -0.16753566  0.017309257   0.01781368  0.018580732 
 2941000   0.30093952   0.02191506   -0.7192831   -0.2678964  -0.14908875  0.021170457  0.025020632  0.019554091 
 2942000   0.30045636  0.018023837   -0.7176586  -0.26699659  -0.16928435  0.016949945  0.019011445  0.018110121 
 2943000   0.29815868  0.019232132  -0.72039704  -0.27318138  -0.16891864  0.019554996    0.0202548  0.017886599 
 2944000    0.2988508  0.019020002  -0.71651849  -0.26826469  -0.16515196  0.019373435  0.018555792   0.01913078 
 2945000   0.29946745   0.01961932  -0.71833997  -0.26916126  -0.16279947  0.022234704  0.020101278  0.016521978 
 2946000   0.29910848  0.016089528  -0.71541411  -0.26677382    -0.179548  0.017093271  0.015082669  0.016092645 
 2947000   0.29843476  0.015446549  -0.71575084  -0.26812109  -0.18438104  0.013552152  0.014401589  0.018385907 
 2948000    0.3006985  0.017247126   -0.7187088  -0.26768359  -0.17418212  0.016329082  0.015882382  0.019529912 
 2949000   0.30196468  0.022399546  -0.72100179  -0.26807742  -0.14664325  0.020657281  0.022965429  0.023575928 
 2950000   0.30163442  0.015849306  -0.71993204  -0.26750303  -0.18157953   0.01649068  0.013328334  0.017728904 
 2951000   0.30087149  0.016996036  -0.71682413  -0.26553946  -0.17339921  0.017759316  0.016258604  0.016970187 
 2952000   0.29748141  0.018115915  -0.71863194  -0.27243214  -0.17422072  0.016763734  0.017891123   0.01969289 
 2953000   0.30019933  0.016923109  -0.72073948    -0.270463  -0.17871811  0.018870876  0.018392166  0.013506286 
 2954000    0.2975799   0.01934229   -0.7190085  -0.27266098  -0.16780104  0.019077039  0.021956884  0.016992947 
 2955000   0.29931837  0.017856875   -0.7179691    -0.269014   -0.1722069  0.019850517  0.016490346  0.017229762 
 2956000   0.29998512   0.01488338  -0.71821464  -0.26825946  -0.18757251  0.013282214  0.014267786   0.01710014 
 2957000   0.29660939   0.01881841  -0.71451061  -0.26961877  -0.16759893  0.018531596  0.015629285  0.022294348 
 2958000    0.2967476  0.016220706  -0.71423047  -0.26913133  -0.18119436  0.017055541  0.017595955  0.014010621 
 2959000   0.30198059  0.019194221  -0.71783831  -0.26489007  -0.16083285  0.018770075  0.018245642  0.020566945 
 2960000   0.30080855  0.019119589  -0.71670174  -0.26551148  -0.16185886  0.019455978  0.018757231  0.019145559 
 2961000   0.30065274  0.017898215  -0.71248244  -0.26152588  -0.16449467  0.020512251   0.01842498  0.014757415 
 2962000   0.30105675  0.020103826  -0.71159169  -0.26002915  -0.15104071  0.019764087  0.019587429  0.020959963 
 2963000   0.29969265  0.018131504  -0.72059381  -0.27107731  -0.17278138  0.016942061  0.017484438  0.019968014 
 2964000   0.30104399  0.014680005  -0.72114222  -0.26959881  -0.19001441  0.011965815  0.018140199     0.013934 
 2965000   0.29876699  0.015811129  -0.71829457  -0.27016649  -0.18444996  0.015268133  0.016361188  0.015804066 
 2966000   0.29873236    0.0161838  -0.71893358  -0.27085744  -0.18312055  0.018649066  0.017325236  0.012577098 
 2967000   0.29936377  0.019463365  -0.71768806  -0.26866486  -0.16314853  0.018430605  0.021050097  0.018909395 
 2968000   0.30147689  0.020814545  -0.71684491  -0.26465218  -0.15181074  0.021218871   0.01966733  0.021557434 
 2969000   0.30094927  0.015532029  -0.71498416  -0.26358282  -0.17937937  0.015839399  0.016785139  0.013971549 
 2970000   0.29821959  0.015757141  -0.71478972   -0.2674827  -0.18205885  0.014987969  0.013476019  0.018807436 
 2971000   0.29614126  0.018557542  -0.71349669  -0.26930701  -0.16870141  0.018009334  0.017141089  0.020522204 
 2972000   0.29952697  0.017298861  -0.72087421  -0.27160621  -0.17782427  0.016710198  0.018013826  0.017172558 
 2973000   0.29789367  0.016638463  -0.71985787  -0.27303971  -0.18283797  0.016114105  0.017281036  0.016520249 
 2974000   0.29893129  0.016370497  -0.72238955  -0.27401503    -0.185266  0.016755963  0.015624174  0.016731353 
 2975000   0.29882934  0.020968527  -0.71273166  -0.26451006  -0.15083384  0.017970974  0.021577884  0.023356723 
 2976000   0.30442837  0.018564296   -0.7113841  -0.25476437  -0.15412215  0.020198555  0.017095948  0.018398384 
 2977000   0.30062982   0.01784075  -0.70940359  -0.25848141  -0.16176173   0.01803253  0.016333381  0.019156338 
 2978000   0.29787005  0.017957802  -0.70898234  -0.26219961  -0.16484536  0.015451188   0.02015312  0.018269097 
 2979000   0.29891217  0.015447099  -0.71148377  -0.26313793   -0.1793949  0.014632286  0.014998103  0.016710908 
 2980000    0.2977378  0.018739148  -0.70745641  -0.26087204   -0.1592819  0.020143154   0.01852881  0.017545479 
 2981000    0.2996665  0.017883988  -0.70682114  -0.25734387  -0.16038979  0.017439515  0.016275914  0.019936535 
 2982000   0.29949166  0.018637263  -0.70359265  -0.25437762  -0.15333983  0.018386924  0.020651373  0.016873493 
 2983000    0.3009174  0.016889192  -0.71230522  -0.26095169  -0.16939068  0.019096549  0.016071797   0.01549923 
 2984000   0.29866602  0.018250464  -0.71009995  -0.26212332  -0.16318247  0.016100977  0.019759897  0.018890518 
 2985000   0.29974776  0.017453114  -0.71516043  -0.26556128  -0.17094309  0.017488611  0.018105273  0.016765457 
 2986000    0.3024267  0.019452837  -0.71580064  -0.26218328  -0.15672403  0.018973632  0.019340771  0.020044108 
 2987000   0.29828448   0.01900584  -0.71889702  -0.27149268  -0.16845672   0.02073025  0.017676022  0.018611248 
 2988000    0.2999489  0.019138437  -0.71657776   -0.2666769   -0.1629221  0.019988469  0.019776815  0.017650028 
 2989000   0.29867127  0.018759186  -0.71479052  -0.26680602  -0.16510724  0.020215964  0.017287917  0.018773678 
 2990000   0.30093609  0.013197509  -0.71256752  -0.26118595  -0.18963858  0.013131742  0.012501675  0.013959109 
 2991000   0.30093569  0.016970877  -0.71142582  -0.26004486  -0.16804101  0.018945161  0.018044336  0.013923133 
 2992000   0.30102319  0.019918621  -0.71810491  -0.26659271  -0.15860832  0.019828663  0.021329415  0.018597785 
 2993000   0.30020405  0.021495429  -0.71873065   -0.2684471  -0.15191439  0.021804337  0.020799458  0.021882493 
 2994000   0.30326089  0.020313367   -0.7267358  -0.27186721  -0.16174279  0.019598118  0.021848534  0.019493448 
 2995000   0.30018467  0.015801752  -0.72096433  -0.27070984  -0.18504413  0.016889776  0.014029258  0.016486224 
 2996000   0.29737804  0.018987238  -0.71686675  -0.27082199  -0.16788689   0.02115924  0.018223489  0.017578985 
 2997000   0.29823016  0.020021681  -0.71514012  -0.26781725  -0.15927415  0.021447861  0.018599198  0.020017983 
 2998000   0.30035284  0.016559457  -0.71568897  -0.26518224  -0.17540882   0.01685259   0.01754754  0.015278242 
 2999000   0.30117356    0.0194561  -0.72210309  -0.27036533  -0.16488839  0.017236477  0.019577445   0.02155438 
 3000000    0.3014657  0.019081853  -0.72098687  -0.26881094   -0.1653629  0.022888591  0.015659522  0.018697446 
Loop time of 5225.65 on 1 procs for 1000000 steps with 20000 atoms

Performance: 82669.067 tau/day, 191.364 timesteps/s
100.0% CPU use with 1 MPI tasks x 1 OpenMP threads

MPI task timing breakdown:
Section |  min time  |  avg time  |  max time  |%varavg| %total
---------------------------------------------------------------
Pair    | 3679.1     | 3679.1     | 3679.1     |   0.0 | 70.40
Neigh   | 1174.3     | 1174.3     | 1174.3     |   0.0 | 22.47
Comm    | 62.152     | 62.152     | 62.152     |   0.0 |  1.19
Output  | 25.007     | 25.007     | 25.007     |   0.0 |  0.48
Modify  | 244.12     | 244.12     | 244.12     |   0.0 |  4.67
Other   |            | 40.95      |            |       |  0.78

Nlocal:    20000 ave 20000 max 20000 min
Histogram: 1 0 0 0 0 0 0 0 0 0
Nghost:    8209 ave 8209 max 8209 min
Histogram: 1 0 0 0 0 0 0 0 0 0
Neighs:    324604 ave 324604 max 324604 min
Histogram: 1 0 0 0 0 0 0 0 0 0

Total # of neighbors = 324604
Ave neighs/atom = 16.2302
Neighbor list builds = 85230
Dangerous builds = 4149

write_restart 	out.restart.sys.final.${temp}
write_restart 	out.restart.sys.final.0.3
unfix intg
unfix ploadx
undump  trj
uncompute denprof
unfix   denprof

next    t
jump    SELF temperatureloop
variable t loop 10
variable  temp  equal 0.1+($t-1)*0.1
variable  temp  equal 0.1+(4-1)*0.1

#OUTPUT
# density profile
compute denprof all chunk/atom bin/1d x center ${xbin}
compute denprof all chunk/atom bin/1d x center 0.05
fix     denprof all ave/chunk 100 1000 500000 denprof density/number file out.profile.density.${temp}.data
fix     denprof all ave/chunk 100 1000 500000 denprof density/number file out.profile.density.0.4.data

#OUTPUT
log   log.lammps.${temp}
log   log.lammps.0.4
