thermo 1000
thermo_style custom step temp press pe etotal enthalpy pxx pyy pzz
dump 		trj all atom 500 out.sys_nvt.${temp}.lammpstrj
dump 		trj all atom 500 out.sys_nvt.0.9.lammpstrj
restart 100000 out.restart1.${temp} out.restart2.${temp}
restart 100000 out.restart1.0.9 out.restart2.${temp}
restart 100000 out.restart1.0.9 out.restart2.0.9

fix ploadx all balance 10000 1.05 shift x 20 1.05
fix intg all nvt temp ${temp} ${temp} ${tdump}
fix intg all nvt temp 0.9 ${temp} ${tdump}
fix intg all nvt temp 0.9 0.9 ${tdump}
fix intg all nvt temp 0.9 0.9 1
run ${Nrun}
run 1000000
Per MPI rank memory allocation (min/avg/max) = 12.56 | 12.56 | 12.56 Mbytes
Step Temp Press PotEng TotEng Enthalpy Pxx Pyy Pzz 
 8000000   0.80097343   0.15437256  -0.30424383   0.89715624    1.7340529   0.15631607   0.15449272   0.15230889 
 8001000   0.90141404   0.18266108  -0.29220654    1.0598469    2.0501035   0.18600286   0.18385018   0.17813019 
 8002000   0.89627872   0.17982048  -0.29423316    1.0501177    2.0249746   0.17810815   0.18609393   0.17525934 
 8003000   0.89584016   0.17605471  -0.29773231    1.0459607    2.0004023   0.17439348    0.1771094   0.17666123 
 8004000   0.89356761   0.17826367  -0.29463906    1.0456453    2.0120623   0.17831913   0.17643686   0.18003502 
 8005000    0.8969599    0.1790747    -0.293763    1.0516096    2.0224234   0.17777883   0.18035273   0.17909255 
 8006000   0.90448575   0.18202891  -0.29667801    1.0599828    2.0468122   0.18139473   0.18242554   0.18226645 
 8007000   0.90272633    0.1784319  -0.29593355    1.0580882    2.0254172   0.18252294   0.17393513   0.17883762 
 8008000   0.90292796   0.17910011  -0.29319565    1.0611286    2.0320801   0.18360504    0.1758406   0.17785468 
 8009000   0.90516521   0.17983505   -0.2946576    1.0630223    2.0379582   0.17884054   0.17756622   0.18309839 
 8010000   0.90534216   0.18136905  -0.29506663    1.0628787    2.0461308   0.18284276    0.1788463    0.1824181 
 8011000   0.90249182   0.18095028  -0.29530503     1.058365    2.0393469    0.1833295   0.17849687   0.18102448 
 8012000   0.89017488   0.17830169   -0.2953849    1.0398106    2.0064338   0.17694368   0.18099789   0.17696351 
 8013000   0.89646218   0.17972047  -0.29930344    1.0453226    2.0196373   0.17971838   0.18060984   0.17883318 
 8014000   0.90140981   0.17880949  -0.29825342    1.0537937    2.0231697   0.17806163   0.17795972   0.18040712 
 8015000   0.90430497   0.17974205    -0.294856    1.0615336    2.0359654   0.17899509   0.18024356   0.17998751 
 8016000   0.90400008   0.18078665  -0.29462479    1.0613075    2.0414023   0.18164252   0.18091651   0.17980093 
 8017000   0.90851801   0.17943847  -0.29832098    1.0643879    2.0371738   0.17639709   0.18144911   0.18046921 
 8018000    0.8919121   0.18056846  -0.29353793    1.0442633    2.0231753   0.18277697    0.1803276   0.17860083 
 8019000   0.89549853   0.17837226  -0.29650926    1.0466714    2.0136771   0.17783227   0.17453859   0.18274592 
 8020000   0.89425279   0.17870866  -0.29497171    1.0463404    2.0151698   0.17927971   0.17902951   0.17781675 
 8021000   0.89957186   0.17740635  -0.29717706    1.0521133    2.0138825   0.17853221   0.17820361   0.17548324 
 8022000   0.89397145    0.1787564  -0.29273285    1.0481573    2.0172455   0.17926785   0.17720045    0.1798009 
 8023000   0.90296051   0.17815606  -0.29839944    1.0559736    2.0218072   0.18014067   0.17412445   0.18020307 
 8024000   0.90351837   0.17822636  -0.29864982      1.05656    2.0227747     0.177519   0.18083615   0.17632392 
 8025000   0.90285519   0.18165275  -0.29346093    1.0607541    2.0455443   0.18539084   0.17705494   0.18251245 
 8026000   0.90289076   0.18134906  -0.29579105    1.0584774    2.0416211   0.18431421   0.18272398   0.17700899 
 8027000   0.89199828   0.17708442  -0.29901822    1.0389123    1.9989363   0.17609233    0.1748555   0.18030543 
 8028000   0.89236785    0.1781494  -0.29684225    1.0416426    2.0074401   0.17714207   0.17729051   0.18001562 
 8029000   0.89610729   0.17854487   -0.2973465    1.0467472    2.0146887   0.17972082   0.17710883   0.17880497 
 8030000   0.89997066   0.18361111   -0.2950573    1.0548312    2.0502382   0.17792986   0.18386584   0.18903763 
 8031000   0.90668955   0.18159784  -0.29455189    1.0654144    2.0499069   0.18334421   0.17905596   0.18239336 
 8032000   0.90112742   0.18152773  -0.29489924    1.0567243    2.0408367   0.18207878   0.18033817   0.18216625 
 8033000   0.90067659   0.18023292   -0.2947574    1.0561899    2.0332828   0.18240242   0.17669725   0.18159911 
 8034000   0.90176501   0.17989102  -0.29354893    1.0590309    2.0342703   0.17895148   0.18049964   0.18022196 
 8035000   0.89985329    0.1764841  -0.29776889    1.0519436     2.008713   0.17233208   0.17992774   0.17719248 
 8036000   0.89769334    0.1797438  -0.29516398    1.0513087    2.0257499   0.18183798   0.17715702    0.1802364 
 8037000   0.89723413   0.17714652   -0.2961115    1.0496724     2.010033   0.17290852   0.17921049   0.17932056 
 8038000   0.89613592   0.17952931  -0.29529361    1.0488431    2.0221214   0.18058536   0.18141545   0.17658711 
 8039000   0.89170966   0.17838371  -0.29656681    1.0409308    2.0079986   0.17718736   0.17808428   0.17987947 
 8040000   0.88222611   0.17661825  -0.29413151    1.0291415    1.9866382   0.17969102   0.17595993    0.1742038 
 8041000   0.89798894   0.17869436  -0.29434258    1.0525735    2.0213254   0.17538497   0.18094307   0.17975503 
 8042000   0.89763216   0.17582545  -0.29621988     1.050161    2.0033598   0.17387234   0.17678431   0.17681969 
 8043000   0.90912308   0.17996136  -0.29840143     1.065215    2.0408357   0.18394067   0.17782135   0.17812206 
 8044000   0.90355813   0.18237156  -0.29073431    1.0645351    2.0532221   0.18545698   0.18464054   0.17701716 
 8045000   0.90603367   0.18131146  -0.29762901    1.0613535    2.0442935   0.18029003   0.18381776    0.1798266 
 8046000   0.90068503    0.1808964  -0.29659706    1.0543629    2.0350527   0.17831939    0.1831224   0.18124741 
 8047000   0.90551425   0.18238225  -0.29549723    1.0627062    2.0514512   0.18662423   0.18043938   0.18008316 
 8048000   0.89976138    0.1812633  -0.29487626    1.0546983    2.0373772   0.18256368   0.18103298   0.18019323 
 8049000   0.89546124   0.17696242  -0.29657491    1.0465498    2.0059124    0.1733091   0.18016154   0.17741663 
 8050000   0.88445093   0.17613228  -0.29627066    1.0303394    1.9852016   0.17835254   0.17143338   0.17861093 
 8051000   0.89296803   0.17691238  -0.29830263    1.0410824    2.0001737   0.17472382   0.17829353   0.17771978 
 8052000   0.89768093    0.1790383  -0.29502973    1.0514243    2.0220408   0.18136388   0.18111654   0.17463447 
 8053000   0.90004803   0.17766689  -0.29851585    1.0514887    2.0146704   0.17733309   0.17396825   0.18169932 
 8054000   0.89840078   0.17924744  -0.29462661    1.0529072    2.0246575   0.18015467   0.18224245   0.17534519 
 8055000   0.89330914   0.17981684  -0.29361589    1.0462808     2.021118   0.18005408   0.18062643   0.17877002 
 8056000   0.90189634   0.17934131  -0.29786223    1.0549146    2.0271738   0.18211976   0.17982923   0.17607495 
 8057000    0.9024389   0.17600071  -0.29846087    1.0551298    2.0092787   0.17587179    0.1785855   0.17354486 
 8058000   0.90148472   0.18282192  -0.29476903    1.0573904     2.048519   0.18285922   0.18179337   0.18381317 
 8059000   0.91014362   0.17751667  -0.30130241    1.0638448     2.026212   0.18056555   0.17526197   0.17672248 
 8060000   0.90603513   0.18340464  -0.29560915    1.0633756    2.0576632   0.18085474   0.18289343   0.18646575 
 8061000   0.89758086   0.17980163  -0.29436128    1.0519427    2.0266974   0.18156996   0.17761949   0.18021545 
 8062000   0.90005517   0.17310373  -0.30070453    1.0493107    1.9877542   0.17306285   0.17537071   0.17087763 
 8063000   0.89760981    0.1783392  -0.29736101    1.0489864    2.0158129   0.18049814   0.17958315   0.17493631 
 8064000   0.89362714   0.18058913  -0.29444624    1.0459274    2.0249514   0.18032897   0.18295216   0.17848627 
 8065000   0.90525096   0.18147936   -0.2974234    1.0603852    2.0442353   0.18865144   0.17886036   0.17692628 
 8066000   0.90585017   0.17974927  -0.29562305    1.0630843    2.0375552   0.17702249    0.1816236   0.18060174 
 8067000   0.90223436   0.18026364  -0.29540581    1.0578781    2.0351374   0.17749851   0.17906462   0.18422778 
 8068000   0.89960582   0.18297462  -0.29179408    1.0575472    2.0495036   0.18298115    0.1841796   0.18176312 
 8069000   0.89859823   0.17921683  -0.29755696     1.050273    2.0218573   0.17534269   0.18252284   0.17978495 
 8070000   0.89142435   0.17784209  -0.29595108    1.0411186    2.0052501    0.1800872   0.17724145   0.17619763 
 8071000    0.8984947   0.17642655  -0.29573094    1.0519437    2.0084012   0.17783566   0.17519423   0.17624976 
 8072000   0.89768427   0.17795911  -0.29632966    1.0501294    2.0148953   0.17801854   0.17988157   0.17597722 
 8073000   0.89499799   0.18307789  -0.29180959    1.0506203    2.0431365   0.18248181   0.18166908   0.18508277 
 8074000   0.89903245   0.17696207  -0.29627228     1.052209    2.0115696   0.17919835   0.17203832   0.17964953 
 8075000   0.90464366   0.17958961  -0.29541022    1.0614874    2.0350927   0.17860815   0.18101474   0.17914594 
 8076000   0.91161624   0.18150028  -0.29685291    1.0705031    2.0544667   0.18387374   0.18036928   0.18025784 
 8077000   0.90156988   0.18319876  -0.29373152    1.0585557    2.0517272   0.18100624   0.18914895   0.17944109 
 8078000   0.89794139   0.18005508   -0.2966837     1.050161    2.0262898   0.18295879   0.17870824    0.1784982 
 8079000   0.89264783   0.17965083  -0.29401704    1.0448878     2.018825   0.18230048   0.18155517   0.17509685 
 8080000   0.89299607   0.17874479  -0.29475272    1.0446744    2.0136997   0.18014545   0.17976418   0.17632476 
 8081000    0.8920857   0.17886454  -0.29729931    1.0407623    2.0104368   0.17744445   0.17694784   0.18220132 
 8082000   0.89892378   0.17713809  -0.29776784    1.0505504    2.0108653   0.17469866   0.17913233   0.17758328 
 8083000   0.90035428   0.17983418  -0.29474097    1.0557229    2.0306541   0.18157091   0.17987538   0.17805625 
 8084000   0.89236594    0.1774191   -0.2946026    1.0438794    2.0057177    0.1770503   0.17757065   0.17763633 
 8085000   0.89090551   0.18024935   -0.2942015    1.0420899    2.0192719   0.18072984   0.18144787   0.17857035 
 8086000   0.89519751   0.17669302   -0.2979184    1.0448107    2.0027128   0.17517118   0.17955832   0.17534956 
 8087000   0.89974972   0.17501016  -0.29675618    1.0528009    2.0015797   0.17423586    0.1749094   0.17588522 
 8088000   0.89990064   0.17913927  -0.29483986    1.0549436    2.0261075   0.17710918   0.17802804   0.18228059 
 8089000   0.90244306   0.18219153  -0.29530546    1.0582914    2.0460024   0.18377192   0.18163195   0.18117071 
 8090000   0.90736124   0.18119113  -0.29732266    1.0636511    2.0459387   0.17695165   0.18411825   0.18250351 
 8091000   0.90486101   0.18256654  -0.29692458    1.0602991    2.0500431   0.18237209   0.18332369   0.18200384 
 8092000   0.90616445   0.18337329  -0.29392433    1.0652544    2.0593721   0.18179287   0.18098981    0.1873372 
 8093000   0.89747416   0.17827321  -0.29572928    1.0504146    2.0168834   0.17499778   0.18022626   0.17959559 
 8094000    0.9027004   0.17759739   -0.2970297    1.0569532    2.0197581   0.17764402   0.17207247   0.18307569 
 8095000   0.89677718   0.18038198  -0.29569969    1.0493988    2.0272998   0.17936683   0.17781931   0.18395978 
 8096000   0.89014649   0.17351221  -0.29747164    1.0376813    1.9783394   0.17066583   0.17468073   0.17519008 
 8097000    0.8947329   0.17611411  -0.29941175    1.0426205    1.9973842    0.1743567   0.17424757   0.17973807 
 8098000    0.8921913   0.17854283  -0.29490952    1.0433105     2.011241   0.17903877   0.17899931   0.17759042 
 8099000   0.89707918   0.18086086  -0.29388581    1.0516657    2.0321628    0.1774831   0.18122132   0.18387816 
 8100000   0.89788013   0.17897699  -0.29696981     1.049783    2.0200671   0.18188335    0.1791802   0.17586741 
 8101000   0.89862263   0.18226267  -0.29429574    1.0535708    2.0416675   0.18070561   0.18181762    0.1842648 
 8102000   0.90276248   0.17832163  -0.29690539    1.0571706    2.0239018   0.18086315   0.17748759   0.17661414 
 8103000   0.90511886   0.18398088  -0.29058075    1.0670297    2.0644413   0.18486054   0.18189506   0.18518704 
 8104000   0.90331013   0.17826382  -0.29761218    1.0572853    2.0237031   0.17763052   0.18078976   0.17637118 
 8105000   0.90407763    0.1813994   -0.2948955    1.0611531    2.0445698   0.18198636   0.18010571   0.18210613 
 8106000   0.90334169   0.17968028  -0.29584018    1.0591046    2.0332015   0.18000541   0.17961341   0.17942203 
 8107000   0.91018066   0.18172098  -0.29541722    1.0697855    2.0549455   0.18006711   0.18213729   0.18295853 
 8108000   0.90317948   0.17956605  -0.29615624    1.0585452    2.0320228   0.17970366   0.17815717    0.1808373 
 8109000     0.898786   0.17574573  -0.29820319    1.0499084     2.002675   0.17614874   0.17592557   0.17516288 
 8110000   0.89778678   0.18004843  -0.29325476    1.0533581    2.0294508   0.18156371     0.176997   0.18158459 
 8111000   0.89754954   0.18070094  -0.29480907    1.0514479     2.031078   0.17899955   0.17924545   0.18385781 
 8112000    0.8963214    0.1781984   -0.2955557    1.0488592    2.0149223   0.18235336   0.17579063   0.17645122 
 8113000     0.889903   0.18008846  -0.29603362    1.0387541    2.0150638   0.17842161   0.18345621   0.17838755 
 8114000   0.89290658   0.17882892  -0.29807416    1.0412187    2.0107001   0.17730393   0.17708899   0.18209385 
 8115000   0.89867973   0.17702462  -0.29857235    1.0493798    2.0090796   0.17692628   0.17813155   0.17601602 
 8116000   0.89912618   0.18082044  -0.29364371    1.0549781    2.0352561   0.18078456   0.17998317   0.18169357 
 8117000   0.90747775    0.1815672  -0.29612515    1.0650234    2.0493498   0.18222987   0.18123458   0.18123716 
 8118000   0.90342583   0.17696822  -0.29732023    1.0577508    2.0171448   0.18083342   0.17538764   0.17468359 
 8119000   0.90411854   0.18294076  -0.29516154    1.0609485    2.0527213   0.18404355   0.17940019   0.18537855 
 8120000   0.90389827   0.17774654  -0.29613823    1.0596414    2.0232549   0.17329427   0.18349506   0.17645028 
 8121000   0.89982025   0.18053958  -0.29611173    1.0535512    2.0323065   0.18520755   0.17563213   0.18077907 
 8122000   0.88925376   0.17576935  -0.29531274    1.0385012    1.9913958    0.1743265   0.17282442   0.18015713 
 8123000   0.89007583   0.17659507  -0.29703184    1.0380152    1.9953862    0.1749506   0.17633426   0.17850036 
 8124000   0.90299607   0.17896817  -0.29624309    1.0581833    2.0284196   0.17789939   0.18186609   0.17713902 
 8125000   0.90525228    0.1816858  -0.29457934    1.0632312    2.0482005    0.1855324   0.17963448   0.17989054 
 8126000   0.90151767   0.18154308  -0.29462431    1.0575846    2.0417802   0.18377997   0.18062512   0.18022415 
 8127000   0.90025548   0.17995753   -0.2956011    1.0547146    2.0303145   0.17971174   0.18178549   0.17837536 
 8128000   0.90673578   0.17847053  -0.29852036    1.0615153    2.0290538   0.17787453   0.18102099   0.17651608 
 8129000   0.90511246   0.18044893  -0.29633976     1.061261     2.039525   0.17926643   0.18208753   0.17999283 
 8130000   0.90718597   0.18327775  -0.29653572    1.0641752    2.0577749   0.18286036   0.18110902   0.18586389 
 8131000   0.90270467   0.17956671  -0.29847859    1.0555107    2.0289919   0.18025958   0.18029077   0.17814979 
 8132000   0.90119235   0.17996285  -0.29514453    1.0565764    2.0322052   0.18013972   0.18340688   0.17634197 
 8133000   0.89039189   0.17838243  -0.29677756    1.0387435    2.0058044   0.18202019   0.17632998   0.17679713 
 8134000   0.89373479   0.17812783  -0.29561168    1.0449235     2.010604   0.17920254   0.17773612   0.17744482 
 8135000   0.89407846    0.1802126  -0.29561021    1.0454404    2.0224231   0.17951886   0.17994386   0.18117509 
 8136000    0.8988297   0.18225521  -0.29222733    1.0559498    2.0440061   0.18573936   0.17978214   0.18124414 
 8137000   0.89661714    0.1799552  -0.29339898    1.0514595    2.0270468   0.17932348   0.18114387   0.17939826 
 8138000   0.89977214   0.17934906  -0.29460029    1.0549904    2.0272916   0.17632184   0.18074659   0.18097875 
 8139000   0.90324329   0.18225589  -0.29488114     1.059916     2.047976   0.18310537   0.18129562   0.18236668 
 8140000   0.90389469   0.18154725  -0.29142454    1.0643497    2.0485679   0.18161332   0.18081924   0.18220918 
 8141000   0.90878856   0.18433011  -0.29122317    1.0718915    2.0711964   0.18654294   0.18583427   0.18061314 
 8142000   0.90047522   0.17719772  -0.29774999    1.0528953    2.0135335   0.18209473   0.17559796   0.17390049 
 8143000   0.89988379   0.17689778  -0.29752602    1.0522322    2.0112443   0.17673886   0.17653584   0.17741864 
 8144000   0.89561152   0.17806124  -0.29697063    1.0463795     2.011699   0.17820734   0.18109797   0.17487839 
 8145000   0.88964111   0.17746472  -0.29609133    1.0383036    2.0003893   0.17833536    0.1755785   0.17848029 
 8146000   0.89491174   0.17836162   -0.2947398    1.0475607    2.0145087   0.17610407   0.17972292   0.17925788 
 8147000   0.89653484   0.17871874  -0.29562055    1.0491145    2.0179985   0.17657063   0.18079512   0.17879046 
 8148000    0.8935542   0.17843307   -0.2968666    1.0433977     2.010733   0.17665957   0.18042912   0.17821051 
 8149000   0.89540686   0.17704974  -0.29498871    1.0480544    2.0078904   0.17667783   0.17832841   0.17614299 
 8150000   0.89844991   0.17978957  -0.29497788    1.0526296    2.0273189   0.18343844   0.17728218   0.17864809 
 8151000   0.89971504   0.18033484  -0.29484748    1.0546576     2.032303   0.18117409   0.17882962   0.18100081 
 8152000   0.89740247   0.18089745  -0.29362822    1.0524082    2.0331036   0.17690161   0.18426929   0.18152145 
 8153000   0.90407815   0.18006608  -0.29816327    1.0578862    2.0340745   0.18090635   0.18400799    0.1752839 
 8154000   0.90490015    0.1827283  -0.29557136     1.061711     2.052332   0.18040815   0.18505516    0.1827216 
 8155000   0.90134638   0.18331416  -0.29500235    1.0569496    2.0507467   0.18203932   0.18474377   0.18315938 
 8156000   0.90763502   0.18061228  -0.29410976    1.0672747    2.0464242   0.18156587   0.18138677   0.17888421 
 8157000   0.90070446   0.18338636  -0.29385572    1.0571334    2.0513219   0.18363508   0.18460785   0.18191615 
 8158000   0.89483443   0.18168896  -0.29178723    1.0503973    2.0353838   0.18089328   0.18014253   0.18403106 
 8159000   0.89826926   0.18157699  -0.29272907    1.0546074    2.0389869   0.18300855   0.18263587   0.17908655 
 8160000   0.90026795   0.18214288  -0.29157331    1.0587611    2.0462084   0.18500811   0.18108745   0.18033308 
 8161000   0.91275968   0.17932321  -0.29590624    1.0731648    2.0453259   0.17752268   0.18172706   0.17871989 
 8162000   0.91053219   0.18417995  -0.29411919    1.0716108    2.0701016   0.18475017   0.18361006   0.18417961 
 8163000   0.90537023   0.17881893   -0.2969232    1.0610642    2.0304915   0.18267738   0.17902857   0.17475085 
 8164000   0.90274279   0.17792156  -0.29828188    1.0557646    2.0203269     0.178972   0.17651934   0.17827336 
 8165000   0.89768032   0.17960266  -0.29545338    1.0509998    2.0246758   0.18405553   0.17739028   0.17736217 
 8166000   0.89824358   0.17954664  -0.29609399     1.051204    2.0245764   0.18026506   0.17407896   0.18429591 
 8167000   0.89369366      0.17714  -0.29778397    1.0426895    2.0030148   0.17720595   0.17474048   0.17947358 
 8168000   0.88424834   0.17523942  -0.29710406    1.0292021    1.9792239   0.17566518   0.17389709   0.17615599 
 8169000    0.8924644   0.17822139   -0.2953595    1.0432702    2.0094579   0.18084217   0.17715429    0.1766677 
 8170000   0.89798461   0.18223531  -0.29476379    1.0521458    2.0400941   0.18049586   0.18506298   0.18114709 
 8171000   0.88924896   0.17693167   -0.2983072    1.0354995    1.9946954   0.17893914   0.17444466   0.17741121 
 8172000   0.89848821    0.1811395  -0.29372698     1.053938    2.0359456   0.18143727   0.18137798   0.18060324 
 8173000   0.90409266   0.17755528   -0.2992015    1.0568697    2.0194463   0.17720463   0.17872743   0.17673379 
 8174000   0.90705488   0.18041861  -0.29575894    1.0647554    2.0428549   0.18026233   0.18292288   0.17807061 
 8175000   0.90364073   0.18193541    -0.296718    1.0586753    2.0449978   0.18174501   0.18307611    0.1809851 
 8176000   0.89883516   0.17889509  -0.29482595    1.0533594    2.0231995   0.17814545   0.18178191    0.1767579 
 8177000    0.8932734   0.18153974  -0.29268033    1.0471628    2.0313403   0.17993587   0.18313036     0.181553 
 8178000   0.88951006   0.18194599  -0.29559584    1.0386025    2.0249825   0.18029519   0.17836931   0.18717349 
 8179000   0.90021459   0.17937541  -0.29680863    1.0534457    2.0258898   0.18080348    0.1786609   0.17866186 
 8180000   0.89853049   0.17788129  -0.29882916    1.0488992    2.0132432   0.17727499   0.17962919   0.17673969 
 8181000   0.89971569    0.1797901  -0.29480069    1.0547054    2.0293976   0.18248423    0.1817214   0.17516468 
 8182000    0.9015327   0.18467645  -0.29278845     1.059443    2.0606254   0.18351901    0.1824588   0.18805153 
 8183000   0.90946258   0.18211279  -0.29675992    1.0673658    2.0546499   0.18192588    0.1840654    0.1803471 
 8184000   0.90005367   0.18284868  -0.29519562    1.0548174     2.046091   0.18610865   0.18224182   0.18019556 
 8185000     0.897964   0.17795108  -0.29474198    1.0521367     2.016859   0.17405732     0.180553   0.17924292 
 8186000   0.89410242   0.17641501  -0.29596559     1.045121    2.0015159   0.17917693   0.17473152   0.17533658 
 8187000   0.89345559   0.17713252  -0.29661034     1.043506    2.0037908   0.18044549   0.17478977   0.17616231 
 8188000   0.90511631   0.18099657  -0.29377649    1.0638301    2.0450629   0.18007543   0.18421499   0.17869927 
 8189000   0.90079403   0.18305986   -0.2942302    1.0568933    2.0493118   0.18553156   0.18070606   0.18294197 
 8190000   0.90762967   0.18152846  -0.29468188    1.0666946    2.0508109   0.18534188   0.17924072   0.18000277 
 8191000    0.8998383   0.18123566  -0.29041443    1.0592755    2.0418045   0.17988523   0.18071816   0.18310358 
 8192000   0.90251129   0.17710091  -0.29829056    1.0554087     2.015522   0.17781299   0.17595276   0.17753698 
 8193000    0.9063064   0.18108467  -0.29514617    1.0642455    2.0459559   0.17968983   0.18022926   0.18333492 
 8194000   0.90091648   0.17783373  -0.29596343    1.0553437    2.0194299   0.17374889   0.18024788   0.17950441 
 8195000   0.90251917   0.17898101  -0.29575855    1.0579525    2.0282584   0.18101629   0.17863769   0.17728906 
 8196000   0.89868225   0.17838123  -0.29640697     1.051549    2.0186033   0.18069534   0.17652105    0.1779273 
 8197000   0.89313723   0.17767975  -0.29437055    1.0452683    2.0085197   0.17696954   0.17868631   0.17738342 
 8198000   0.89971911   0.17946323  -0.29532142    1.0541898    2.0271099   0.18116417   0.17715817   0.18006737 
 8199000   0.90364082   0.17863263  -0.29612363    1.0592698    2.0276871   0.17803478   0.18222575   0.17563736 
 8200000   0.90041721   0.18060823  -0.29469364    1.0558646    2.0349921    0.1817559   0.18023292   0.17983587 
 8201000   0.90650285   0.18251645  -0.29687555    1.0628107    2.0522832   0.18168716   0.18108924   0.18477294 
 8202000   0.90252946   0.17914195  -0.29689619    1.0568303    2.0280087    0.1821231   0.17967734   0.17562541 
 8203000   0.90699293   0.17982358  -0.29496448    1.0654569    2.0403306   0.17623456   0.18248938   0.18074681 
 8204000   0.89846773   0.18213522  -0.29097436    1.0566599    2.0440656    0.1825615   0.18251175    0.1813324 
 8205000   0.90709378   0.18060236   -0.2960672    1.0645054    2.0436011   0.17641687   0.18494352   0.18044668 
 8206000   0.90308753   0.17943579  -0.29652968    1.0580339    2.0308053   0.18194537    0.1768587   0.17950331 
 8207000   0.90168751   0.17684594  -0.29697333    1.0554903    2.0142214    0.1742348   0.17569425   0.18060876 
 8208000   0.90521162   0.18328887  -0.29754082    1.0602087    2.0538687   0.18383426   0.18443585   0.18159649 
 8209000   0.91552781    0.1848189  -0.29295807     1.080265    2.0822197   0.18516408   0.18692678   0.18236584 
 8210000   0.90734457   0.17987029  -0.29584423    1.0651046    2.0402315   0.18119133   0.17983299   0.17858653 
 8211000   0.90434683    0.1815629  -0.29627482    1.0601776    2.0444806   0.18100131   0.18135334   0.18233405 
 8212000   0.90344573   0.17797128  -0.30019826    1.0549026    2.0197344   0.18066738    0.1751709   0.17807555 
 8213000   0.89928513   0.17622456  -0.29635289    1.0525073    2.0078698   0.17582498   0.17516614   0.17768255 
 8214000   0.89600967   0.17706205  -0.29948062    1.0444667    2.0043694    0.1743918   0.17692267   0.17987168 
 8215000   0.89812787   0.17977477  -0.29366426    1.0534602    2.0280693   0.17530513   0.18453446    0.1794847 
 8216000   0.90142638   0.18182498  -0.29553289    1.0565391    2.0422629   0.17925457   0.17971885   0.18650151 
 8217000   0.89957225   0.18120884  -0.29309222    1.0561987    2.0385823   0.18003754   0.18180238   0.18178662 
 8218000   0.89675468   0.18027158  -0.29371444    1.0513503    2.0286528   0.17980875    0.1836659   0.17734008 
 8219000   0.89829224   0.18003189   -0.2952799    1.0520911    2.0280941   0.17877539   0.18130246   0.18001782 
 8220000   0.89631436   0.17957052  -0.29391307    1.0504912    2.0239931   0.18372927   0.17331868   0.18166361 
 8221000   0.89392063   0.17710645   -0.2978181    1.0429958    2.0031392   0.17891138   0.17881176    0.1735962 
 8222000   0.89765297   0.17992647  -0.29360095    1.0528112    2.0282427   0.17916627   0.18040045    0.1802127 
 8223000   0.89514305    0.1785289  -0.29587852    1.0467689    2.0146238   0.17886545   0.17795953   0.17876172 
 8224000   0.89858421   0.18085994  -0.29579647    1.0520125    2.0325045   0.18064337   0.18450274   0.17743371 
 8225000   0.90292086   0.17720813  -0.29695331    1.0573603    2.0180549   0.17466636   0.17907848   0.17787956 
 8226000   0.91065162   0.18382944  -0.29519067    1.0707185    2.0673091   0.18417431   0.18244076   0.18487326 
 8227000   0.90485883   0.18027091  -0.29879046    1.0584299    2.0357287   0.18243673   0.17828853   0.18008745 
 8228000   0.89915406   0.17846225  -0.29567424    1.0529894     2.020483   0.17696292   0.17839524    0.1800286 
 8229000   0.89733017   0.17760296  -0.29886346    1.0470645    2.0098996   0.17792903   0.18035097   0.17452889 
 8230000   0.89416951    0.1772723  -0.29370744    1.0474798    2.0085223    0.1799493   0.17552265   0.17634496 
 8231000   0.89381104   0.17964933  -0.29426979    1.0463797    2.0203088   0.17453793   0.18274927    0.1816608 
 8232000   0.89728117   0.17752879   -0.2966391    1.0492154    2.0116483   0.17493671   0.17552459   0.18212506 
 8233000   0.89919192   0.18059864  -0.29437458    1.0543459    2.0334214   0.18625754   0.17648421   0.17905417 
 8234000   0.89705836   0.17760215  -0.29845743    1.0470628    2.0098936   0.17825843   0.18026864   0.17427938 
 8235000   0.89868792   0.17898594   -0.2974387    1.0505258    2.0208584   0.18207004   0.17601934   0.17886845 
 8236000   0.89400082   0.17998036  -0.29570492    1.0452293    2.0209529   0.18069609   0.17973765   0.17950735 
 8237000   0.89795956   0.18188075  -0.29407951    1.0527925    2.0388187   0.18134601    0.1839884   0.18030784 
 8238000   0.89939724   0.17804265  -0.29709113    1.0519373     2.017156   0.17820925   0.17564661   0.18027208 
 8239000   0.90049743   0.17822267  -0.29698734    1.0536913     2.019886   0.18050783   0.17816159   0.17599859 
 8240000   0.90190559   0.17845753  -0.29805845    1.0547323    2.0222003   0.17893095   0.17385185   0.18258979 
 8241000   0.90805994   0.18177284  -0.29576037    1.0662614    2.0517026   0.17832528    0.1828401   0.18415312 
 8242000   0.90301018   0.17882161  -0.29781706    1.0566305    2.0260722   0.18255696   0.17853742   0.17537045 
 8243000   0.89983166   0.17917313  -0.29728247    1.0523975     2.023745   0.18099696   0.17486945   0.18165298 
 8244000   0.89655254   0.18062067   -0.2948218    1.0499398    2.0291347   0.18335546    0.1788462   0.17966035 
 8245000   0.89918467   0.18047659   -0.2985552    1.0501544    2.0285682   0.18071822   0.18178274    0.1789288 
 8246000   0.89693529   0.17516347   -0.2973131    1.0480226    1.9976325   0.17237319   0.17353601    0.1795812 
 8247000    0.8968049   0.18054377  -0.29617688    1.0489632    2.0277413   0.18128398   0.18169951   0.17864783 
 8248000   0.89352152   0.17876225  -0.29363845    1.0465768    2.0156968   0.18027821    0.1768198   0.17918873 
 8249000   0.90466967   0.17980254  -0.29427217    1.0626645    2.0374241   0.18010883   0.18025945   0.17903933 
 8250000   0.91132086   0.18009707  -0.29866883    1.0682441    2.0446005    0.1778179   0.18101108   0.18146224 
 8251000   0.89950631   0.18354989  -0.29123806    1.0579539     2.053029   0.18166539   0.18565475   0.18332952 
 8252000   0.89760066   0.17707979  -0.29702014    1.0493135    2.0093124   0.17980088   0.17554976   0.17588874 
 8253000   0.89379615   0.17973121  -0.29491968    1.0457075    2.0200805    0.1819812   0.17809256   0.17911988 
 8254000   0.89736066   0.17709498  -0.29670008    1.0492736    2.0093548   0.17919273   0.17500846   0.17708376 
 8255000   0.90180311   0.18148172  -0.29539476    1.0572423    2.0411052   0.18119241   0.18247328   0.18077946 
 8256000   0.91011661   0.18114801  -0.29490804    1.0701986    2.0522524   0.17838223   0.17971177   0.18535002 
 8257000   0.90603157   0.17835217  -0.29799208    1.0609873    2.0278841   0.17606742   0.18001415   0.17897494 
 8258000    0.9019178   0.18088866  -0.29583527    1.0569738    2.0376216   0.18218507   0.18168437   0.17879654 
 8259000   0.89516123   0.17791073  -0.29390737    1.0487673    2.0132709   0.18074791   0.17532566   0.17765861 
 8260000   0.88837675   0.17894547  -0.29405448     1.038444    2.0085572   0.18047266   0.17650536   0.17985838 
 8261000   0.89497412   0.18009167  -0.29542819    1.0469659     2.023293   0.17966408   0.18123012   0.17938081 
 8262000   0.89733748   0.17987448  -0.29589474    1.0500442    2.0251939   0.18287766   0.17842981   0.17831599 
 8263000   0.90048251   0.17856082  -0.29748087    1.0531754    2.0212033   0.18249415    0.1761467    0.1770416 
 8264000   0.90721253   0.18339634  -0.29679696    1.0639538    2.0581964   0.18249943   0.18452107   0.18316853 
 8265000    0.9007893    0.1824358  -0.29447582    1.0566406    2.0456758   0.18053429   0.18139095   0.18538215 
 8266000   0.90513745   0.18182021  -0.29485942    1.0627789    2.0484769   0.17999354   0.18542493   0.18004215 
 8267000   0.90794342    0.1811152   -0.2976224    1.0642246    2.0461006   0.17644082   0.18384731   0.18305748 
 8268000   0.90023338   0.18147556  -0.29443959     1.055843    2.0396725    0.1785756   0.18634091   0.17951017 
 8269000   0.89207185   0.17526372  -0.29781197    1.0402289    1.9903823   0.17534696   0.17483039   0.17561379 
 8270000   0.90112088   0.17971354  -0.29555021    1.0560635    2.0303407    0.1808081    0.1797669   0.17856563 
 8271000   0.89765364   0.17955852  -0.29396217     1.052451    2.0258877   0.17610111   0.18041979   0.18215465 
 8272000   0.89028241   0.17509491  -0.29829001    1.0370668    1.9863051   0.17362408   0.17343939   0.17822124 
 8273000   0.89858915   0.17915523  -0.29689731     1.050919    2.0221694   0.17395211   0.18177296   0.18174061 
 8274000   0.90401841   0.17667672  -0.29994496    1.0560149    2.0138286   0.17850936   0.17519328   0.17632753 
 8275000   0.90579493   0.17890299  -0.29547868    1.0631458    2.0330287   0.17721373   0.18264349   0.17685173 
 8276000   0.90407995    0.1769073  -0.30238698    1.0536651    2.0127289   0.18188801   0.17307157   0.17576233 
 8277000   0.90058794   0.17973818  -0.29591904    1.0548953    2.0293061    0.1863196    0.1789199   0.17397505 
 8278000   0.89701222   0.17774111  -0.29670627    1.0487448    2.0123289   0.17858973   0.17735187   0.17728174 
 8279000    0.8863865   0.17570756  -0.29668552    1.0328278    1.9853874   0.17466202   0.17767369   0.17478699 
 8280000   0.89590347   0.17702804  -0.29640396    1.0473841    2.0071024   0.17450315   0.17672121   0.17985976 
 8281000   0.90049956   0.18120372  -0.29623813    1.0544437    2.0367995   0.17982645   0.18428603   0.17949867 
 8282000   0.90188085   0.17933411  -0.29498105    1.0577726    2.0299928   0.18034128   0.17676462   0.18089644 
 8283000   0.89545804   0.18163817  -0.29476275    1.0483572    2.0330683   0.18274012   0.18035256   0.18182183 
 8284000    0.9026839   0.17791558  -0.29555388    1.0584043    2.0229342    0.1790749   0.17662042   0.17805143 
 8285000   0.90737113    0.1798899  -0.29636995    1.0646187     2.039852   0.17839788   0.18181776   0.17945407 
 8286000   0.90587109   0.17824412  -0.29617723    1.0625615    2.0288725   0.18270366    0.1776344   0.17439431 
 8287000   0.90313137   0.17671128  -0.29819193    1.0564374    2.0144385   0.17717736   0.17579547   0.17716101 
 8288000   0.90402253   0.17999579  -0.29622184    1.0597442    2.0355514   0.18301027   0.17692569    0.1800514 
 8289000   0.89843104   0.18087817  -0.29197566    1.0556035    2.0361944   0.18469338   0.17841615   0.17952497 
 8290000   0.90413769   0.18069246  -0.29527621    1.0608625    2.0404467    0.1849483   0.17581274   0.18131633 
 8291000   0.90492444   0.18308926  -0.29283893    1.0644799    2.0570577   0.18369862   0.18303823   0.18253093 
 8292000    0.8974531   0.17839071  -0.29465509    1.0514573     2.018563   0.17891041   0.17874974   0.17751198 
 8293000   0.89188909   0.17663783  -0.29690811    1.0408586    1.9984615   0.18346702    0.1730038   0.17344267 
 8294000   0.89495806   0.17975877   -0.2946022    1.0477678    2.0222901   0.18009367    0.1779398   0.18124283 
 8295000   0.90017141   0.17904017  -0.29850187    1.0516877    2.0223144   0.17874178   0.17910506   0.17927367 
 8296000    0.8990924   0.18070959  -0.29502704    1.0535441    2.0332211   0.18089392   0.18205695   0.17917789 
 8297000   0.90159813   0.17745908  -0.29743313    1.0548964    2.0169515   0.18166507   0.17445478   0.17625738 
 8298000   0.90347689   0.17974003   -0.2944399    1.0607077    2.0351284   0.17908481   0.17968604   0.18044924 
 8299000   0.91092314   0.17917804  -0.29743779    1.0688786    2.0402526   0.17469585   0.18103155   0.18180671 
 8300000   0.90520502   0.18133325  -0.29820142    1.0595382    2.0425963   0.17905776   0.18531019    0.1796318 
 8301000   0.89558107   0.17755778  -0.29496377    1.0483407    2.0109308   0.17752832   0.17892318   0.17622184 
 8302000   0.89620348   0.18081762  -0.29601308    1.0482249    2.0284876   0.18062869   0.18413189   0.17769229 
 8303000   0.89958676   0.18287597  -0.29480099    1.0545117    2.0459333   0.18483379   0.18603027   0.17776384 
 8304000    0.8999875   0.17764384  -0.29667383    1.0532399    2.0162967   0.17280268   0.18055782   0.17957103 
 8305000   0.90427316   0.17635058  -0.29950984    1.0568321    2.0128777   0.17555371   0.17437618   0.17912186 
 8306000   0.90337782   0.17889966  -0.29585623    1.0591427    2.0290076   0.17765523   0.17961758   0.17942616 
 8307000   0.90197936   0.17849371  -0.29443168    1.0584697    2.0261338   0.18146068   0.17848098   0.17553948 
 8308000   0.89295362   0.17708497  -0.29710206    1.0422614    2.0022883   0.17742783    0.1779537   0.17587338 
 8309000   0.89865334    0.1796367  -0.29708505    1.0508276    2.0246882   0.17864908   0.17852989   0.18173114 
 8310000   0.89173561   0.18261462  -0.29289479    1.0446417    2.0346465   0.18827654   0.18232491   0.17724242 
 8311000   0.89862167   0.17732783  -0.29903103    1.0488341    2.0101776   0.17653787   0.17718356   0.17826205 
 8312000    0.8967758   0.17754768  -0.29524148     1.049855    2.0123904    0.1788817   0.17383358   0.17992775 
 8313000   0.89950812   0.18064117  -0.29417241    1.0550223    2.0343284   0.18239574   0.18101412   0.17851364 
 8314000   0.89992187   0.18314172  -0.29489703    1.0549183    2.0477805   0.18302865   0.18480385   0.18159266 
 8315000   0.90477692   0.18017821  -0.29396854     1.063129    2.0399252   0.17790779   0.18140852   0.18121832 
 8316000   0.90289466   0.17931658  -0.29849578    1.0557785    2.0279036   0.18068735   0.17743684   0.17982556 
 8317000   0.89675193   0.18043895  -0.29382859    1.0512321    2.0294418   0.18160475   0.18041751   0.17929458 
 8318000   0.89887973   0.18110233  -0.29635863    1.0518935    2.0336997    0.1829236   0.18102171   0.17936168 
 8319000   0.89291685   0.17863764  -0.29727359    1.0420347    2.0104791   0.18131522   0.17857219   0.17602551 
 8320000   0.89692479   0.17852766  -0.29380851    1.0515114    2.0193596   0.17989814   0.18319588   0.17248898 
 8321000   0.89738922    0.1776183  -0.29612008    1.0498965    2.0128147   0.17961459   0.17327865   0.17996167 
 8322000   0.90562157   0.18811054  -0.28963484    1.0687296    2.0885292   0.18408215   0.18884974   0.19139974 
 8323000   0.90535539   0.18393173  -0.29401906    1.0639461    2.0610912    0.1889041   0.17996001   0.18293106 
 8324000   0.89456862   0.18052572  -0.29325264    1.0485332    2.0272134   0.17891504    0.1802807   0.18238142 
 8325000   0.89599604   0.17699113  -0.29919793    1.0447289    2.0042471   0.17468395   0.17510833   0.18118111 
 8326000   0.89563984   0.17886188  -0.29661775    1.0467748    2.0164349   0.17878684   0.17852213   0.17927669 
 8327000   0.90704825   0.17942089  -0.29507138     1.065433    2.0381236   0.17974662   0.18136573   0.17715033 
 8328000   0.90830941   0.18179595  -0.29398497     1.068411    2.0539775   0.18166493   0.18046678   0.18325616 
 8329000   0.90297072   0.18175509  -0.29297216    1.0614162    2.0467612   0.17740815   0.18544138   0.18241574 
 8330000   0.90061845    0.1822335  -0.29444043    1.0564197    2.0443583   0.18132097   0.18621293   0.17916662 
 8331000   0.89964274   0.18070093  -0.29298158    1.0564151    2.0360451   0.17861963   0.18008236   0.18340081 
 8332000   0.90306298    0.1797191  -0.29517181    1.0593549    2.0336622   0.18791272   0.17811213   0.17313244 
 8333000   0.89473187   0.18322342  -0.29361361    1.0484171    2.0417223   0.18013049   0.18584943   0.18369035 
 8334000   0.89635859     0.180255  -0.29502694    1.0494437    2.0266563   0.17964637    0.1824974   0.17862124 
 8335000   0.89455589   0.17987163  -0.29439069     1.047376    2.0225102   0.18025077   0.17615747   0.18320665 
 8336000   0.89834986    0.1789465  -0.29677367    1.0506837    2.0208026   0.17710084   0.17614647   0.18359218 
 8337000   0.90651235     0.183691  -0.29269743    1.0670031    2.0628432    0.1866326   0.17886155   0.18557885 
 8338000   0.90400333   0.18324393  -0.29264571    1.0632915    2.0567079   0.18099889   0.18440494   0.18432796 
 8339000   0.90126929   0.17647723  -0.29913436     1.052702    2.0094342   0.17727343   0.17610546   0.17605278 
 8340000   0.89655758   0.17871682  -0.29729744    1.0474717    2.0163453   0.18208459    0.1748588   0.17920707 
 8341000   0.89930202   0.17889037  -0.29585668    1.0530289    2.0228434   0.17671411   0.18136968   0.17858732 
 8342000   0.89223545   0.18095878  -0.29418783    1.0440984    2.0251264   0.18158742    0.1831987   0.17809024 
 8343000   0.89694673    0.1806556  -0.29581449    1.0495383    2.0289227   0.17827992   0.18214802   0.18153886 
 8344000   0.89444857   0.18301914  -0.28923588    1.0523699    2.0445676   0.18275625   0.18442544   0.18187572 
 8345000   0.90133091   0.18138792  -0.29645616    1.0554726    2.0388271   0.17883211    0.1804109   0.18492076 
 8346000   0.90556341   0.17907424  -0.29460413    1.0636731    2.0344844   0.18287865   0.17782692   0.17651716 
 8347000   0.90459285   0.17705194  -0.29753237    1.0592891    2.0191369   0.17842522   0.18019449    0.1725361 
 8348000   0.91622618   0.18175574  -0.29627446    1.0779961    2.0633446   0.18139451   0.17777711   0.18609559 
 8349000   0.90533549   0.17879561  -0.29717334     1.060762    2.0300628   0.17816954   0.17818014   0.18003717 
 8350000   0.90039795   0.17896713  -0.29547047    1.0550589    2.0252896   0.17551151   0.17934948   0.18204039 
 8351000   0.89462749    0.1827576   -0.2916871     1.050187    2.0409669    0.1836436   0.17874269   0.18588651 
 8352000   0.89996971   0.17836922  -0.29749317    1.0523939    2.0193831   0.17961888   0.17777976   0.17770903 
 8353000   0.89250543   0.17858419  -0.29580564    1.0428856    2.0110402   0.18381868   0.17662614   0.17530776 
 8354000   0.89481862   0.18310227  -0.29266025    1.0495006     2.042149   0.18137234   0.18201572   0.18591876 
 8355000    0.9002202   0.17340013  -0.29932487    1.0509379    1.9909883   0.17433501   0.17215023   0.17371514 
 8356000   0.90251101   0.17704591  -0.29879632    1.0549025    2.0147177   0.17766237     0.177033   0.17644236 
 8357000   0.90217556     0.182928  -0.29308841    1.0601073    2.0518109   0.18206649    0.1796525   0.18706501 
 8358000   0.90197258   0.17812848  -0.29760772    1.0552835    2.0209676   0.18359377   0.17192239   0.17886928 
 8359000    0.8946916   0.17999759  -0.29667701    1.0452933    2.0211104   0.17606287   0.17938499   0.18454493 
 8360000   0.89953173   0.17775175  -0.29904844    1.0501817    2.0138234    0.1789463   0.17793985    0.1763691 
 8361000   0.89507889   0.17807247  -0.29677774    1.0457735    2.0111539   0.17980198   0.17341157   0.18100386 
 8362000   0.91121055   0.17764591  -0.29845653     1.068291    2.0313589   0.17957896   0.17718083   0.17617794 
 8363000   0.90445642   0.18332402  -0.28951527    1.0671015    2.0609521    0.1888194   0.18309105   0.17806162 
 8364000   0.90197186   0.18206425  -0.29568776    1.0572024    2.0442234   0.18009338   0.18224902   0.18385035 
 8365000   0.89702793   0.17826314  -0.29492917    1.0505455    2.0169596   0.18164238   0.17879368   0.17435336 
 8366000    0.8937493   0.17862487  -0.29608054    1.0444764    2.0128516   0.17840097   0.17920536   0.17826829 
 8367000    0.9007981    0.1778228  -0.29816182    1.0529678    2.0169947   0.17871027   0.17650562   0.17825251 
 8368000   0.90876401    0.1817137  -0.29310192    1.0699759    2.0550965    0.1800816   0.18059684   0.18446268 
 8369000   0.90243898   0.17976457  -0.29699929    1.0565915    2.0311453   0.17963515   0.17853805    0.1811205 
 8370000   0.90682697   0.18546698  -0.29390852    1.0662639    2.0717321   0.18790929   0.18387864   0.18461301 
 8371000   0.90171325   0.18199148  -0.29509538    1.0574069    2.0440334   0.18351383   0.18150557   0.18095504 
 8372000   0.89826233   0.18049174  -0.29368202    1.0536441    2.0321401   0.17836915   0.18618302   0.17692305 
 8373000   0.89417494   0.17908449  -0.29623607    1.0449593    2.0158262   0.17554766   0.18362802    0.1780778 
 8374000   0.90130257   0.17595931  -0.29836647    1.0535198    2.0074442    0.1765384   0.17794851   0.17339101 
 8375000   0.89789028   0.17897881  -0.29467694    1.0520911    2.0223851   0.17871795   0.18025936   0.17795911 
 8376000   0.89924585   0.18048146   -0.2971396    1.0516617     2.030102   0.17991428   0.17950373   0.18202637 
 8377000   0.89814168   0.17898037  -0.29386061    1.0532846     2.023587   0.17637998   0.18063179   0.17992935 
 8378000    0.8897564   0.17654885  -0.29423198    1.0403359    1.9974564   0.17257184   0.18069708   0.17637764 
 8379000   0.89130551   0.17497554  -0.29907932    1.0378121    1.9864032    0.1718791   0.17935158   0.17369594 
 8380000   0.89824214   0.17994568  -0.29534841    1.0519474    2.0274831   0.18285455   0.18005062   0.17693187 
 8381000   0.89942779   0.18284345  -0.29511273    1.0539615    2.0452067   0.18199046   0.18423869   0.18230119 
 8382000   0.90550184   0.18400386  -0.29511007    1.0630748     2.060611   0.18263659   0.18450807   0.18486693 
 8383000   0.90281976   0.17762178   -0.2981714    1.0559905    2.0189277   0.17982543   0.17543246   0.17760746 
 8384000   0.91022454   0.17959988  -0.29899703    1.0662715    2.0399325   0.18025328    0.1779874   0.18055897 
 8385000   0.90275394   0.18001876  -0.29731606    1.0567471     2.032679   0.17692759   0.18071747   0.18241122 
 8386000    0.9013114   0.18213119  -0.29315881    1.0587407    2.0461246   0.18088054   0.18555852   0.17995451 
 8387000   0.90081732   0.18151795  -0.29343101    1.0577274    2.0417868   0.18444948   0.17997042   0.18013396 
 8388000   0.90275983   0.17679963  -0.29921182    1.0548602    2.0133402   0.17703618   0.17722709   0.17613561 
 8389000   0.90066356   0.17751427  -0.29763464    1.0532931    2.0156475   0.18050043   0.17320583   0.17883657 
 8390000   0.89553125   0.18081587  -0.29491765    1.0483121    2.0285652   0.17830352   0.18473608     0.179408 
 8391000   0.90008656    0.1795232  -0.29359883    1.0564635    2.0297088   0.17689569   0.18027404   0.18139986 
 8392000   0.90111608   0.17890699  -0.29592205    1.0556845    2.0255891   0.17992196   0.17522147   0.18157756 
 8393000   0.90068472   0.18252509  -0.29277074    1.0581888    2.0477082   0.18031799   0.18687682   0.18038048 
 8394000   0.90984078   0.18005485  -0.29404086    1.0706521    2.0467796   0.17823485   0.17897689   0.18295281 
 8395000   0.90963752   0.18427531  -0.29389147    1.0704966    2.0695044   0.18618648    0.1821431   0.18449634 
 8396000   0.89842496   0.18208784  -0.29306761    1.0545024    2.0416514   0.17908679   0.18177054    0.1854062 
 8397000    0.8946654   0.17991225  -0.29370338    1.0482276     2.023582   0.17772337   0.17991934   0.18209404 
 8398000   0.89338798   0.17909667  -0.29631914    1.0436958    2.0146288   0.17961162   0.17904811    0.1786303 
 8399000   0.89065012   0.18009602  -0.29187391    1.0440345    2.0203852   0.18169615   0.17953363   0.17905827 
 8400000   0.89447087   0.17996758  -0.29676246    1.0448768    2.0205311   0.18008733   0.18091282    0.1789026 
 8401000   0.89737261   0.18129209  -0.29208237    1.0539092    2.0367441   0.18149568   0.18118695   0.18119362 
 8402000   0.90422443   0.17745532  -0.29743146    1.0588374    2.0208721   0.17536426   0.17736839   0.17963332 
 8403000   0.91169324   0.18525119  -0.29506776    1.0724037     2.076702   0.18385683   0.18583058   0.18606616 
 8404000   0.90422828   0.18036047  -0.29382816    1.0624464    2.0402308   0.18406908   0.18268608   0.17432625 
 8405000   0.90386574   0.17874838  -0.29745146    1.0582794    2.0273241   0.17850604   0.17846048   0.17927863 
 8406000   0.90426287   0.18007683  -0.29643693    1.0598895    2.0361362   0.18590801   0.17530674   0.17901574 
 8407000    0.8868039   0.17566253  -0.29548645    1.0346529    1.9869684   0.17688258   0.17425874   0.17584626 
 8408000   0.89499277   0.17444014  -0.30053963    1.0418824     1.987571   0.17894361   0.17389085   0.17048595 
 8409000   0.89770727    0.1785392  -0.29824694    1.0482466    2.0161573   0.17855169   0.17384113   0.18322477 
 8410000   0.89727863   0.17995671  -0.29461486    1.0512358    2.0268312    0.1818227    0.1817801   0.17626733 
 8411000   0.89953347   0.18007718  -0.29502507    1.0542077    2.0304562   0.17889657   0.18145166    0.1798833 
 8412000   0.90008771   0.17988425  -0.29598005     1.054084    2.0292866   0.18027951   0.18129363   0.17807962 
 8413000   0.89948523   0.18018035  -0.29391936     1.055241    2.0320489    0.1831462   0.17588157   0.18151327 
 8414000   0.90400612   0.18066263  -0.29369058    1.0622508    2.0416732   0.17896923   0.18240739   0.18061128 
 8415000   0.91074306   0.18725319  -0.29171931     1.074327    2.0894787   0.18553285   0.19073669   0.18549003 
 8416000   0.90951691   0.18283964  -0.29708348    1.0671237    2.0583483   0.18312792   0.18305691    0.1823341 
 8417000   0.90103895     0.179032  -0.29642226    1.0550686    2.0256509   0.17800099   0.17903086   0.18006413 
 8418000   0.90136753   0.17886731  -0.29514392    1.0568398    2.0265293   0.17670106    0.1744099   0.18549097 
 8419000   0.89930872   0.18110131   -0.2944424    1.0544532    2.0362539   0.17970383   0.18345757   0.18014251 
 8420000   0.89930606    0.1780868  -0.29662057    1.0522711    2.0177292   0.17910891   0.17670958    0.1784419 
 8421000   0.89880522   0.17935245  -0.29573845     1.052402    2.0247216   0.17999201   0.17908242   0.17898293 
 8422000   0.89171821   0.18060842  -0.29451673    1.0429937    2.0221223   0.18412311   0.17566022   0.18204194 
 8423000    0.9057842   0.18060423  -0.29457342    1.0640349    2.0431408   0.17777292   0.18338357   0.18065619 
 8424000   0.90551458   0.18205552  -0.29534418    1.0628598    2.0498335   0.18289311   0.17927552   0.18399795 
 8425000   0.90340224   0.18082685  -0.29590838    1.0591272      2.03944   0.18296005   0.17982616   0.17969435 
 8426000   0.90632049   0.17951893  -0.29835782    1.0610549     2.034277   0.18435848   0.17933111    0.1748672 
 8427000   0.90023098   0.18160562   -0.2947805    1.0554985    2.0400331   0.18274937   0.18184089    0.1802266 
 8428000   0.89947991   0.18411037  -0.29131791    1.0578345    2.0559481   0.18455229   0.18717155   0.18060728 
 8429000   0.90026368   0.18116009   -0.2951075    1.0552205    2.0373398   0.18194037   0.17938782   0.18215208 
 8430000   0.89994784   0.17992842  -0.29605505    1.0537992    2.0292413   0.18351404   0.17935138   0.17691983 
 8431000   0.89392128   0.17875561   -0.2928332    1.0479817    2.0170656   0.17630409   0.18336335    0.1765994 
 8432000    0.8953384   0.18112591  -0.29103546     1.051905     2.033839   0.18274447     0.178163   0.18247026 
 8433000   0.89752652    0.1760196  -0.29731116    1.0489113    2.0031626   0.17293251    0.1760462   0.17908009 
 8434000   0.89990419    0.1791966   -0.3005753    1.0492135    2.0206882    0.1816264   0.17838324   0.17758015 
 8435000   0.89556258   0.17593374  -0.29788065    1.0453961    1.9991819   0.17343148   0.17702269   0.17734706 
 8436000   0.90695665   0.17887927  -0.29761793     1.062749    2.0325034   0.17870307    0.1818073   0.17612746 
 8437000   0.89997602   0.18059364   -0.2950923    1.0548042    2.0338527   0.17969836   0.17637312   0.18570946 
 8438000   0.89765478   0.17862223   -0.2967515    1.0496633    2.0180242   0.18085645   0.17921687   0.17579337 
 8439000   0.89894187   0.18091355  -0.29384461    1.0545008    2.0352835   0.18003384   0.18081686   0.18188995 
 8440000   0.90573792   0.17980855  -0.29539439    1.0631446    2.0379368   0.17946888   0.18099539   0.17896139 
 8441000   0.90123099   0.18031992  -0.29339507    1.0583838    2.0359483   0.18087849   0.17764089   0.18244038 
 8442000   0.90069989   0.18083137  -0.29430217    1.0566801    2.0370174   0.17948954   0.18293488    0.1800697 
 8443000    0.8990509   0.18167817  -0.29454507    1.0539638    2.0388918   0.17880603   0.18314509    0.1830834 
 8444000   0.89996364   0.17647881  -0.29760974    1.0522682     2.009009   0.17501268   0.17656707   0.17785667 
 8445000   0.89248234   0.17476703  -0.29536796    1.0432886    1.9907494   0.17613922   0.17352252   0.17463935 
 8446000   0.88710275   0.18041869  -0.29653409    1.0340535    2.0121535   0.18293269   0.18018555   0.17813782 
 8447000   0.89596655   0.17908589  -0.29377424    1.0501084    2.0209829   0.17828648   0.17947678    0.1794944 
 8448000   0.90269222   0.17790665  -0.30024862     1.053722    2.0182035   0.17705947   0.18022187   0.17643861 
 8449000    0.9040514   0.18010114  -0.29539756    1.0606117    2.0369902   0.18375116   0.17958298   0.17696928 
 8450000   0.91036763   0.17833324   -0.2993043    1.0661789     2.032973    0.1739628   0.17879307   0.18224385 
 8451000   0.91382278   0.18203811  -0.29597181    1.0746938    2.0615731   0.18045586   0.18223839   0.18342006 
 8452000   0.90148483   0.18061111   -0.2942574    1.0579022    2.0370454   0.17665418   0.18157353   0.18360563 
 8453000   0.89866672   0.17932278  -0.29565659    1.0522761    2.0244348   0.17556538   0.18280993   0.17959303 
 8454000   0.89618245    0.1780784  -0.29421032    1.0499961    2.0154088   0.17482735   0.18018517   0.17922268 
 8455000   0.89774248   0.17993035   -0.2958076    1.0507388    2.0261913   0.17878536   0.17865922   0.18234647 
 8456000   0.89155161   0.17943061  -0.29544158     1.041819    2.0145623   0.17880913   0.17946966   0.18001304 
 8457000   0.88744431   0.17223653  -0.30062786    1.0304721    1.9642142   0.17124771    0.1705523   0.17490956 
 8458000   0.90046859    0.1818572   -0.2946284     1.056007    2.0419055   0.18518325   0.18169487   0.17869349 
 8459000   0.90474176   0.17903796  -0.29828066    1.0587641    2.0293788   0.17343701   0.18311962   0.18055726 
 8460000   0.90511613   0.18058225  -0.29622064    1.0613857    2.0403723   0.18210617   0.17825079    0.1813898 
 8461000   0.91187892   0.17967582  -0.29711606    1.0706339    2.0447066   0.17529116   0.18241762   0.18131868 
 8462000   0.90947089    0.1823719  -0.29587804    1.0682601     2.056949   0.18171787   0.18049557   0.18490226 
 8463000   0.89834479   0.17669132  -0.29579434    1.0516555    2.0095483   0.18006112    0.1724954   0.17751743 
 8464000   0.89508819   0.18121251  -0.29212497    1.0504402    2.0328437   0.18503969   0.18432986   0.17426799 
 8465000    0.8899601    0.1788127  -0.29509277    1.0397806    2.0091741   0.17569026   0.18116668   0.17958115 
 8466000   0.90332658   0.17931379  -0.29743204    1.0574901    2.0296001   0.17633277    0.1823968   0.17921178 
 8467000   0.90380543   0.18368169  -0.29142585    1.0642145    2.0600041   0.18373269   0.18299286   0.18431951 
 8468000    0.9048124   0.17972169  -0.29292592    1.0642248    2.0385461   0.18172627   0.18081178   0.17662701 
 8469000   0.90049815   0.18003145  -0.29399358    1.0566861    2.0326868    0.1761952   0.18140743   0.18249172 
 8470000   0.90357403   0.18060766  -0.29542244    1.0598708    2.0389952   0.18422516   0.17878083   0.17881699 
 8471000   0.90158095   0.17953001  -0.29660285     1.055701    2.0289831   0.17940326   0.17863712   0.18054963 
 8472000   0.89368036   0.17711019  -0.29612341    1.0443301    2.0044938   0.17712213   0.17583342   0.17837503 
 8473000   0.88883007   0.17640933  -0.29686331    1.0363151    1.9926792    0.1759275   0.17648641   0.17681408 
 8474000   0.90156473   0.17996412  -0.29867758    1.0536019    2.0292375    0.1804135   0.18182985   0.17764901 
 8475000   0.90285087    0.1814572  -0.29351354    1.0606951    2.0444251   0.18230907   0.17812618   0.18393636 
 8476000   0.89845844   0.18573022  -0.29111343    1.0565068    2.0634021   0.18864434   0.18653951   0.18200681 
 8477000   0.90631854   0.18056735  -0.29686965    1.0625402    2.0414461   0.18088336   0.17905031   0.18176838 
 8478000   0.89958063   0.17568792  -0.29848172    1.0508218    2.0032749   0.17766998   0.17630695   0.17308683 
 8479000   0.89986932   0.17837105  -0.29519361    1.0545429     2.021542   0.18130429   0.17750265   0.17630621 
 8480000   0.89504785   0.17904974  -0.29605053    1.0464541    2.0171326   0.18050332   0.17787374   0.17877215 
 8481000   0.90149052   0.17647684  -0.29632348    1.0558447    2.0125748    0.1767326    0.1770675   0.17563041 
 8482000   0.89978143   0.18193143  -0.29213742    1.0574672    2.0437682   0.18265232   0.18122168   0.18192029 
 8483000   0.90024715   0.18224384  -0.29289263    1.0574106    2.0454052   0.18369986   0.18328575    0.1797459 
 8484000    0.9063073   0.18263887   -0.2973178    1.0620752    2.0522114   0.18285401   0.18307974   0.18198286 
 8485000   0.90628376   0.18483298  -0.29313307    1.0662246    2.0682557   0.18509736   0.18430027   0.18510131 
 8486000   0.90712743   0.17828804  -0.29837823    1.0622449     2.028794   0.18246161   0.17899357   0.17340895 
 8487000     0.899046   0.17993605  -0.29654436    1.0519572    2.0274407   0.17623818   0.18358633   0.17998366 
 8488000   0.89453625   0.17937679  -0.29499071    1.0467466    2.0191981   0.18375202   0.17618485    0.1781935 
 8489000   0.89511334   0.17724952  -0.29590782    1.0466951    2.0076141   0.17721653   0.17835318   0.17617885 
 8490000    0.8942309   0.17423865  -0.29752982    1.0437495    1.9883457   0.17499909   0.17005628   0.17766058 
 8491000   0.90905892   0.18156735  -0.29530093    1.0682193    2.0525464   0.18266547   0.18165064   0.18038594 
 8492000   0.90023777   0.18207898  -0.29456939    1.0557198    2.0428206   0.18270503    0.1829514    0.1805805 
 8493000   0.91139772   0.18165887   -0.3012587    1.0657695    2.0505928   0.17906347   0.18267092   0.18324221 
 8494000    0.9015174   0.17871581  -0.29520278    1.0570057    2.0258739   0.18018516    0.1791631   0.17679917 
 8495000   0.90636075   0.18222684  -0.29436261    1.0651105     2.053013   0.18034465   0.18470128   0.18163459 
 8496000   0.89694817   0.17943406  -0.29660259    1.0487524    2.0215144   0.17743779   0.17815455   0.18270985 
 8497000   0.89344802   0.17951193  -0.29434599     1.045759    2.0189432   0.17861534    0.1770772   0.18284324 
 8498000   0.89583181   0.17801818  -0.29572467    1.0479559     2.013042   0.17796794   0.17545839    0.1806282 
 8499000   0.89969346   0.17689787  -0.29648412    1.0529886    2.0120012   0.17753384   0.17347395   0.17968581 
 8500000   0.89452718    0.1773072  -0.29580101    1.0459227    2.0071544   0.17737673   0.17451359   0.18003128 
 8501000   0.90469195   0.18290661  -0.29354981    1.0634203    2.0550079    0.1842224   0.18169257   0.18280486 
 8502000   0.90174923   0.17901028  -0.29446744    1.0580888    2.0285534   0.17196509   0.17964517   0.18542058 
 8503000   0.90629152   0.17762214   -0.2985028    1.0608665    2.0238056   0.18057529     0.172813   0.17947811 
 8504000   0.90104161   0.17844368  -0.29479166    1.0567032    2.0240961   0.17611679   0.18162654   0.17758771 
 8505000   0.90316205   0.17968163  -0.29491845    1.0597569     2.033861   0.18364647   0.17812396   0.17727446 
 8506000   0.90027661   0.18238634  -0.29527111    1.0550763    2.0438435   0.18380004   0.18229545   0.18106355 
 8507000   0.89645316   0.17919783  -0.29772775    1.0468848    2.0183661   0.17555531   0.18279814   0.17924006 
 8508000   0.88628603   0.17669029  -0.29528936    1.0340732    1.9919605   0.17360064   0.17793844   0.17853178 
 8509000   0.88836198   0.17942671  -0.29375469    1.0387217    2.0114438   0.17917115   0.18011362   0.17899535 
 8510000   0.89649085   0.18216641  -0.29175797    1.0529111    2.0404859   0.18304617   0.18371947    0.1797336 
 8511000    0.9009537   0.18091483  -0.29685914    1.0545038    2.0352935    0.1765687   0.18278462   0.18339117 
 8512000   0.90303834   0.18423846  -0.29314661    1.0613432    2.0601512   0.18473971     0.182908   0.18506768 
 8513000   0.90390419   0.17810365  -0.29758662    1.0582019    2.0237514   0.17782663   0.17764317   0.17884116 
 8514000   0.90225821    0.1789487  -0.29639021    1.0569294    2.0270602   0.18081323   0.18063214   0.17540073 
 8515000   0.89668903   0.18587138  -0.29050677    1.0544595    2.0621201   0.18416713   0.18595539   0.18749164 
 8516000   0.89927732   0.18152397  -0.29593297    1.0529156    2.0370076   0.18403316   0.18017689   0.18036186 
 8517000   0.89590965   0.17929502  -0.29447603    1.0493213    2.0213295   0.18267336   0.17740117   0.17781052 
 8518000   0.89662159   0.17930341  -0.29801731    1.0468478    2.0189016   0.18174277   0.17613505   0.18003243 
 8519000   0.90371586   0.17855293  -0.29684582    1.0586602    2.0266454   0.17994398    0.1775381   0.17817671 
 8520000   0.90663089   0.18140189  -0.29565233     1.064226    2.0476562   0.17999201   0.18268202   0.18153163 
 8521000   0.90984617   0.18106213  -0.30042287    1.0642781    2.0458664   0.17848604    0.1843794   0.18032096 
 8522000   0.90433628    0.1771873   -0.2978328    1.0586038    2.0191855    0.1730267   0.17952492   0.17901029 
 8523000   0.90480259    0.1814203  -0.29567971    1.0614563    2.0449863   0.17901424   0.18147037   0.18377629 
 8524000   0.90419196   0.17980976  -0.29454777    1.0616723    2.0364711    0.1812514   0.17587783   0.18230005 
 8525000   0.90903447   0.18346365  -0.29549928    1.0679843    2.0625918   0.18686581   0.18109316   0.18243198 
 8526000   0.89079497   0.18132058  -0.29410851    1.0420171    2.0250065   0.18063159   0.17838251   0.18494765 
 8527000   0.89735654   0.17845531  -0.29844618    1.0475213    2.0149773   0.17500843   0.18039015   0.17996735 
 8528000   0.89544605   0.17839702  -0.29552447    1.0475774    2.0147174   0.18130792   0.17574856   0.17813458 
 8529000   0.90913934   0.18160159  -0.29604589    1.0675949    2.0521077   0.18164446   0.17753044   0.18562987 
 8530000   0.90495858   0.18233232  -0.29150105    1.0658689    2.0543432   0.18305753   0.17966667   0.18427275 
 8531000   0.90338449    0.1791839  -0.29666076    1.0583482    2.0297541   0.17744171   0.17974205   0.18036796 
 8532000   0.89912961   0.18134141  -0.29445524    1.0541717     2.037274   0.18382146   0.17754918   0.18265358 
 8533000   0.89322558   0.17927377  -0.29408402    1.0456874    2.0175804   0.17883177   0.18057936   0.17841016 
 8534000    0.8906511   0.17727709  -0.29637055    1.0395393    2.0006078   0.17553311   0.17932377    0.1769744 
 8535000   0.89888188   0.17949342  -0.29363822    1.0546172     2.027701   0.18004604   0.18340674   0.17502748 
 8536000   0.90146483   0.18077927  -0.29511882    1.0570108    2.0370656   0.18080583   0.17777482   0.18375716 
 8537000   0.90522986   0.18385365  -0.29424598    1.0635309    2.0602528   0.18347145   0.18490001    0.1831895 
 8538000   0.90839161   0.18048029  -0.29710904    1.0654102    2.0438441   0.18346721   0.17945423   0.17851943 
 8539000   0.90300325   0.18371621  -0.29371019     1.060727    2.0567037   0.18416947    0.1868727   0.18010647 
 8540000   0.89896912   0.18048677  -0.29427731    1.0541089     2.032578    0.1796385    0.1778744   0.18394742 
 8541000   0.88993335   0.17597805  -0.29713726     1.037696    1.9917221    0.1747754   0.17631742   0.17684135 
 8542000   0.88888519   0.17682902  -0.29752974    1.0357314    1.9943708   0.17533298   0.17901128   0.17614281 
 8543000   0.89657951   0.17706219  -0.29554957    1.0492525    2.0091559   0.17771163   0.17543944   0.17803549 
 8544000   0.89778696   0.17837157  -0.29455672    1.0520564    2.0190583   0.17975447   0.17628558   0.17907464 
 8545000   0.90108069   0.18048663  -0.29389771    1.0576557     2.036124   0.18284471   0.17693774   0.18167745 
 8546000   0.90102412   0.18145272  -0.29372769    1.0577409    2.0414466   0.18301584    0.1808203   0.18052203 
 8547000   0.90548771   0.17694514  -0.29886574    1.0592979    2.0185668   0.17688291   0.18047747   0.17347504 
 8548000   0.90982092   0.18877163  -0.29216966    1.0724935     2.095877   0.18493247   0.19430722    0.1870752 
 8549000   0.90514845   0.18065792  -0.29660356    1.0610512    2.0404481   0.17897657   0.18146959   0.18152761 
 8550000   0.89475233   0.17914775  -0.29625928    1.0458021    2.0170119   0.18005982   0.17964567   0.17773776 
 8551000   0.89522027    0.1777602  -0.29673871    1.0460246    2.0097121   0.17475147   0.17840775   0.18012137 
 8552000   0.89793466    0.1781505  -0.29632122    1.0505134    2.0163169   0.17836794   0.17325056   0.18283299 
 8553000   0.89630215   0.17897253  -0.29413484    1.0502512    2.0205111   0.18123634   0.17704359   0.17863766 
 8554000   0.89456457   0.17751557  -0.29615543    1.0456243    2.0079857   0.17803655   0.17804591   0.17646425 
 8555000   0.89951446   0.17778703  -0.29743391    1.0517703    2.0156033    0.1742403   0.17610318    0.1830176 
 8556000   0.89676681   0.17719035  -0.29555548    1.0495275    2.0101257   0.17752469   0.18172363   0.17232274 
 8557000    0.9013721   0.17601135  -0.29845133    1.0535392    2.0077458   0.17267887   0.17697444   0.17838074 
 8558000    0.9034968   0.17815545  -0.29917528    1.0560022    2.0218325   0.18054969   0.17659535   0.17732132 
 8559000   0.90830118   0.17917996  -0.30001559    1.0623681    2.0337525   0.18398907   0.17481458   0.17873623 
 8560000   0.89918328   0.18334941   -0.2936521    1.0550554    2.0490436   0.18582718   0.18258973   0.18163133 
 8561000   0.89827022    0.1800848  -0.29255916    1.0547788    2.0310686   0.18015842    0.1786412   0.18145478 
 8562000   0.89914786   0.17893178  -0.29447148    1.0541829    2.0242219   0.17998968   0.17898105    0.1778246 
 8563000   0.89174461   0.18011517  -0.29444866    1.0431014    2.0195559   0.18114908   0.17893097   0.18026545 
 8564000    0.8974798   0.17784508  -0.29496716    1.0511852     2.015333   0.17905692   0.17637308   0.17810526 
 8565000   0.89856952   0.17872429  -0.29720295    1.0505839    2.0194981   0.17880674   0.17763365   0.17973248 
 8566000   0.89884838   0.17837049  -0.29636966    1.0518355    2.0188316    0.1797498   0.17489168      0.18047 
 8567000   0.90925393   0.17891529  -0.29759325    1.0662195    2.0361691   0.17783035   0.17880933   0.18010618 
 8568000   0.90443042   0.17731101   -0.3006324    1.0559454    2.0171978   0.17519733   0.17685848   0.17987722 
 8569000   0.90604687   0.17977819  -0.29539172    1.0636106    2.0382383   0.17985817   0.17796373   0.18151267 
 8570000   0.89819319   0.18288706  -0.29326832    1.0539541    2.0454358   0.18398761   0.18007947   0.18459411 
 8571000   0.90744873   0.17995415  -0.29666369    1.0644413    2.0400229   0.18048449   0.18047795   0.17890001 
 8572000   0.90122749   0.17769291  -0.29431252    1.0574611    2.0207839   0.17708107   0.17719693   0.17880072 
 8573000   0.89895493   0.17797096  -0.29565336    1.0527116    2.0175417   0.17862966   0.17718068   0.17810253 
 8574000   0.89704744   0.17930757  -0.29431343    1.0511905    2.0232667   0.17900174   0.18120336   0.17771761 
 8575000   0.89666903   0.17758922  -0.29664749    1.0482888    2.0110494    0.1790429   0.17644865    0.1772761 
 8576000   0.89705905   0.18232138  -0.29479721    1.0507241     2.039139   0.18253738   0.18098131   0.18344545 
 8577000   0.91055716   0.18120432  -0.29636531    1.0694021    2.0517612   0.17777874   0.18463387   0.18120035 
 8578000   0.90406887   0.18062919  -0.29541134    1.0606242    2.0398653   0.18027296   0.17752984   0.18408477 
 8579000   0.90516293   0.17781157  -0.29732929    1.0603472    2.0243132   0.17576402   0.18071267   0.17695801 
 8580000   0.90171955   0.18202774   -0.2977276    1.0547841    2.0416072   0.18309246   0.18191054   0.18108022 
 8581000   0.89659391   0.18074615  -0.29323128    1.0515923    2.0314676   0.17719725   0.18061746   0.18442375 
 8582000   0.89112267   0.17451842   -0.2993079    1.0373093    1.9834222   0.17261974    0.1791027   0.17183282 
 8583000   0.89716846   0.17750286   -0.2953484     1.050337    2.0126295   0.17851341   0.17805462   0.17594055 
 8584000   0.90113493   0.18057565  -0.29693931    1.0546955    2.0336464   0.18408855   0.17855559   0.17908281 
 8585000    0.9086424   0.17783842  -0.30018195    1.0627135    2.0268251   0.17400872   0.18101473   0.17849182 
 8586000   0.90340591   0.17738875   -0.3004615    1.0545796    2.0162534   0.17539107   0.17707423   0.17970095 
 8587000   0.90261075   0.18142893  -0.29382704    1.0600214    2.0435981   0.18085292   0.18020535   0.18322851 
 8588000   0.89948413   0.17899972  -0.29575776     1.053401    2.0238083    0.1783769   0.18087592   0.17774633 
 8589000   0.89658315   0.18162334   -0.2947433    1.0500642    2.0346949   0.18331036   0.17876877    0.1827909 
 8590000   0.88993315    0.1789033  -0.29426876    1.0405642    2.0104488   0.17774999   0.17773933   0.18122058 
 8591000    0.8988331   0.18002205  -0.29471528     1.053467    2.0294166    0.1790459   0.17978242   0.18123782 
 8592000   0.90524941   0.17972936  -0.29972315    1.0580831     2.032446   0.18010969   0.17700541   0.18207298 
 8593000   0.90337595   0.17956316  -0.29549091    1.0595053    2.0329672   0.18109412   0.17485818   0.18273719 
 8594000   0.89969033   0.18066137  -0.29585969    1.0536083    2.0330239   0.17827635   0.17821138   0.18549639 
 8595000   0.88980572   0.17797541  -0.29576476    1.0388771    2.0037314    0.1777477   0.17595488   0.18022366 
 8596000   0.89608989   0.17974972   -0.2938131    1.0502545    2.0247278   0.18210841   0.17978926   0.17735149 
 8597000   0.90251455   0.18057869  -0.29361522    1.0600889    2.0390563   0.18429908   0.17859064   0.17884636 
 8598000   0.90503243   0.18055473  -0.29421165    1.0632691    2.0421066   0.18007297   0.18313185   0.17845936 
 8599000   0.90260624   0.18007536  -0.29687816    1.0569635    2.0332022   0.18029912   0.17764587    0.1822811 
 8600000   0.90796163   0.17759892  -0.29616303    1.0657113    2.0285245    0.1734758   0.17665616   0.18266481 
 8601000   0.91993395   0.18291886  -0.29501106    1.0848209     2.076475   0.18058878   0.18499998   0.18316783 
 8602000   0.90182533    0.1832934  -0.29364587    1.0590245    2.0527091   0.18208172   0.18084685   0.18695164 
 8603000   0.90333891   0.18039792  -0.29437809    1.0605625    2.0385499   0.17976157   0.18097322   0.18045899 
 8604000   0.90338114   0.18178156  -0.29317685    1.0618271    2.0473156   0.18059571   0.18547611   0.17927286 
 8605000   0.90112135   0.17917806  -0.29694668    1.0546678    2.0260419   0.17857277   0.17861009   0.18035132 
 8606000   0.89799257    0.1784346  -0.29482165    1.0520999    2.0194435     0.176886   0.17848121   0.17993659 
 8607000   0.89873817   0.17906189  -0.29385899    1.0541809    2.0249252   0.17606781   0.17768796   0.18342989 
 8608000     0.894356   0.17550964  -0.29918226    1.0422847    1.9937713   0.17764624   0.17474569   0.17413701 
 8609000    0.8987499    0.1758199  -0.29693984    1.0511176    2.0042863   0.17201046   0.18014366   0.17530557 
 8610000   0.89733818    0.1792477   -0.2998382    1.0461018    2.0178535   0.17709319   0.18005028   0.18059965 
 8611000   0.89596171   0.17951751  -0.29536755    1.0485078    2.0217222   0.17698962   0.18020944   0.18135346 
 8612000   0.89358632   0.17779371  -0.29779405    1.0425184    2.0063876   0.17465781   0.17668325   0.18204005 
 8613000   0.89521679   0.17942015  -0.29460159    1.0481564     2.020843   0.17993242   0.17679104   0.18153698 
 8614000   0.90019809    0.1795353  -0.29466813    1.0555615    2.0288724   0.18049226    0.1772078   0.18090585 
 8615000   0.90175059   0.18017013  -0.29556411    1.0569941    2.0337466   0.18042937    0.1776832   0.18239782 
 8616000   0.90649233   0.18241103  -0.29434902    1.0653215    2.0542225   0.18238633   0.18120518   0.18364158 
 8617000   0.89997469   0.18083741  -0.29363551     1.056259     2.036629   0.17828543    0.1822366   0.18199021 
 8618000   0.90528356   0.17934396  -0.29471927    1.0631382    2.0354117   0.18127059   0.17870209   0.17805919 
 8619000   0.91701165   0.18124235  -0.29634824    1.0791005    2.0616657   0.18165913   0.18072646   0.18134147 
 8620000   0.90636644   0.18255031  -0.29364251    1.0658392    2.0554953   0.18281806    0.1795924   0.18524048 
 8621000   0.90406144   0.18253149  -0.29566077    1.0603636    2.0499177   0.17980394   0.18171783   0.18607271 
 8622000   0.89703105   0.18001339  -0.29571781    1.0497615    2.0256642   0.17898244   0.18009974   0.18095798 
 8623000   0.88919997   0.17816427  -0.29647146    1.0372618    2.0031399   0.17678515   0.17935447   0.17835319 
 8624000   0.89403651   0.17639577  -0.29849275     1.042495    1.9987855   0.17896324   0.17226189   0.17796217 
 8625000   0.90098921   0.17915438  -0.29628796    1.0551283    2.0263741   0.17149911   0.18561433    0.1803497 
 8626000   0.89916218   0.17994776  -0.29681479     1.051861    2.0274079   0.17908599   0.18204313   0.17871415 
 8627000   0.90139783   0.17946651  -0.29588583    1.0561433    2.0290813   0.17613453   0.18194595   0.18031906 
 8628000    0.9012864   0.17831123  -0.29737381    1.0544882    2.0211631   0.17305829   0.17942217   0.18245325 
 8629000   0.90613111   0.18248153   -0.2938058    1.0653229    2.0546061   0.18114127    0.1827081   0.18359521 
 8630000   0.90884183    0.1822965  -0.29305691    1.0701377    2.0584178   0.18005979   0.18305339   0.18377632 
 8631000   0.89395318   0.18015465  -0.29372586    1.0471369    2.0238054   0.18247794   0.17933764   0.17864837 
 8632000   0.89601905    0.1798356  -0.29757744    1.0463839    2.0213228   0.17856822   0.18366063   0.17727795 
 8633000   0.89738152   0.17594696  -0.29569801     1.050307    2.0041644   0.17561457   0.17412116   0.17810515 
 8634000   0.89215044   0.18085136  -0.29422484    1.0439339    2.0243795   0.17828574   0.18174654    0.1825218 
 8635000    0.8991183   0.17913781  -0.29799083    1.0506192    2.0217752   0.17954427   0.17623677    0.1816324 
 8636000   0.89797179   0.17593432  -0.29695487    1.0499355    2.0037244   0.17043829    0.1784625   0.17890218 
 8637000   0.90220902   0.17988859  -0.29638909    1.0568568    2.0320829   0.17934704   0.17968174   0.18063701 
 8638000   0.91126473   0.18224518  -0.29437509    1.0724537    2.0604555   0.18708187   0.17565527    0.1839984 
 8639000   0.90534403   0.17899252  -0.29702779    1.0609204    2.0312887   0.17747672   0.18071898   0.17878187 
 8640000   0.90391312   0.17759615  -0.29616391     1.059638    2.0224362   0.17427394   0.17799654   0.18051797 
 8641000   0.90354925   0.18162682  -0.29423096    1.0610252    2.0456748    0.1817015    0.1847878   0.17839117 
 8642000    0.9030539   0.17618606  -0.29573953    1.0587736    2.0139273   0.17760968    0.1762561   0.17469239 
 8643000   0.90045433   0.17853465  -0.29611315    1.0545008    2.0223869   0.17695436   0.18222806   0.17642153 
 8644000   0.89816196   0.17561159  -0.29760545    1.0495701    2.0016095    0.1750896   0.17856484   0.17318034 
 8645000   0.90041535    0.1794025  -0.29775146     1.052804     2.025395   0.17741387   0.17532917   0.18546446 
 8646000   0.89328612   0.18095667  -0.29595997    1.0439022    2.0249187   0.18461182   0.17718723   0.18107097 
 8647000   0.89939409   0.17747679  -0.29703133    1.0519923    2.0141435   0.17325119    0.1798498   0.17932939 
 8648000   0.89496442   0.17643515  -0.29577687    1.0466026    2.0031067   0.18221777   0.17424004   0.17284764 
 8649000   0.89987007   0.17812452  -0.29677617    1.0529614    2.0186241    0.1757814   0.18125816   0.17733401 
 8650000   0.90298232   0.18189056  -0.29667886    1.0577269    2.0438063   0.18454295   0.17826513    0.1828636 
 8651000   0.90766272    0.1856167  -0.29256632    1.0688597    2.0751395   0.18179787   0.18714837   0.18790387 
 8652000   0.90459705   0.17912536  -0.29746821    1.0593595     2.030448   0.18025924   0.17735904   0.17975781 
 8653000   0.90042695   0.17742997  -0.29534035    1.0552325    2.0171298   0.17816578    0.1794978   0.17462634 
 8654000   0.89522496   0.17840339  -0.29592701    1.0468433    2.0140177   0.17891319   0.17916442   0.17713256 
 8655000   0.89215693   0.17751893  -0.29724255    1.0409259    2.0033055   0.17523213   0.18011552   0.17720915 
 8656000   0.90508312   0.17961342  -0.29507958    1.0624772    2.0362116   0.18135858   0.17786542   0.17961626 
 8657000   0.90538509   0.18078984  -0.29404659    1.0639631    2.0440752   0.17980952    0.1808867   0.18167331 
 8658000   0.90271793   0.17960288  -0.29348858    1.0605206    2.0341978    0.1783815   0.18074539   0.17968174 
 8659000   0.90037547    0.1798723  -0.29321789    1.0572778    2.0324156   0.18138021   0.17855946   0.17967724 
 8660000    0.8950982   0.17925251  -0.29613842    1.0464417    2.0182195   0.18067886   0.17480221   0.18227647 
 8661000   0.89904604   0.17779052  -0.29800491    1.0504967    2.0143486   0.17518968   0.17877681   0.17940506 
 8662000   0.89014675   0.18035873  -0.29721038     1.037943    2.0157179   0.18022187   0.17754399   0.18331032 
 8663000   0.89524518   0.17859281  -0.29692989    1.0458707    2.0140721   0.18025068    0.1784414   0.17708636 
 8664000   0.90234336   0.17689733  -0.29876586    1.0546815    2.0136912   0.17810353   0.17705148   0.17553698 
 8665000   0.89935917    0.1778007  -0.29843904    1.0505323    2.0144394   0.17485976   0.18029874    0.1782436 
 8666000   0.89632875   0.18235044  -0.29449937    1.0499265     2.038499   0.18208278   0.18125191   0.18371661 
 8667000   0.89888046   0.18123443  -0.29373547    1.0545178    2.0370401   0.18593447   0.18100648   0.17676235 
 8668000   0.90893017   0.17905005  -0.29692441    1.0664027    2.0370828    0.1772375   0.17950569   0.18040695 
 8669000   0.90411773   0.17778775  -0.29752676     1.058582    2.0224189   0.17634384   0.17695001   0.18006939 
 8670000   0.90296606   0.18166868   -0.2964631    1.0579183    2.0427948   0.18369787   0.18100262   0.18030555 
 8671000   0.89877775   0.18037582  -0.29316636    1.0549329    2.0328004   0.18035025   0.18093722   0.17983999 
 8672000   0.89865401   0.17706006   -0.2958196     1.052094    2.0119859   0.17724293   0.17715233   0.17678492 
 8673000   0.89057783   0.17594129  -0.29632346    1.0394765    1.9933032   0.17346827    0.1784975    0.1758581 
 8674000   0.89643589   0.17911175  -0.29606265     1.048524    2.0195386   0.17516964   0.17697426   0.18519135 
 8675000   0.89734984   0.17853104  -0.29708981    1.0488676    2.0167341    0.1778923   0.17766982   0.18003101 
 8676000   0.89370447    0.1756435  -0.29760155    1.0428881    1.9951005    0.1737184   0.17341219   0.17979991 
 8677000   0.90427923   0.18165919  -0.29621214    1.0601389    2.0449639   0.17812471   0.18325102   0.18360183 
 8678000   0.90501698   0.18329242  -0.29316161     1.064296    2.0579753   0.18411944   0.18389895   0.18185888 
 8679000   0.90413921   0.17648386  -0.29831646    1.0578245    2.0145927   0.17465923    0.1730566   0.18173577 
 8680000   0.89759967   0.17601135  -0.29581789    1.0505143    2.0047208   0.17781173   0.17509553   0.17512678 
 8681000   0.89476204   0.17874678  -0.29886637    1.0432096    2.0122457   0.17923092   0.18023559   0.17677384 
 8682000   0.89886919   0.18099338  -0.29840056    1.0498358    2.0310513   0.17611414   0.18038809    0.1864779 
 8683000   0.90037251   0.17949877  -0.29505494    1.0554363    2.0285491   0.18181271   0.17357718   0.18310642 
 8684000   0.90262464   0.17855024  -0.29757404    1.0562952    2.0242658   0.18210696   0.17853204   0.17501171 
 8685000   0.90496895   0.18132628  -0.29364392    1.0637416    2.0467619   0.18563454   0.17967821   0.17866609 
 8686000   0.90686166   0.18214606  -0.29625508    1.0639694    2.0514339   0.18235647   0.17935587   0.18472584 
 8687000   0.91105632   0.17787824  -0.29610046    1.0704157    2.0347432   0.17538854   0.17546525   0.18278091 
 8688000   0.90421795   0.17879813  -0.29609097    1.0601681    2.0294826    0.1785196   0.18002817   0.17784663 
 8689000   0.90182221   0.17669383  -0.29772086    1.0549448    2.0128513    0.1769245    0.1759003   0.17725668 
 8690000   0.89825471    0.1783658  -0.29721575    1.0500989    2.0170696   0.18131615   0.17762895    0.1761523 
 8691000   0.89271392   0.17651342  -0.29796978    1.0410341    1.9979626   0.17686978   0.17531655   0.17735394 
 8692000   0.89591175   0.17737475  -0.29712803    1.0466724    2.0082703   0.17865456   0.17594423   0.17752545 
 8693000   0.90417638   0.17952504  -0.29677476     1.059422    2.0326773   0.17928646   0.17742489   0.18186378 
 8694000   0.90416537   0.18093697   -0.2948451    1.0613351    2.0422448   0.17664522   0.18514872   0.18101696 
[...]
 8841000   0.90085465   0.18448865   -0.2917974     1.059417    2.0595813   0.18740893   0.18442673   0.18163028 
 8842000   0.89668503   0.18049914  -0.29446616    1.0504941    2.0290302   0.17979042   0.18115803   0.18054898 
 8843000   0.88940149   0.17876471  -0.29744017    1.0365954    2.0057286   0.17614705     0.180328   0.17981907 
 8844000   0.89371735   0.17783542  -0.29640788    1.0441011    2.0081965   0.17368999   0.18592258    0.1738937 
 8845000   0.89578678   0.17790293  -0.29520713    1.0484059    2.0128672   0.17621541   0.17802407   0.17946932 
 8846000   0.89670048   0.17878275  -0.29754261    1.0474409    2.0166719   0.17814996   0.17918803   0.17901026 
 8847000   0.90661473   0.18227571  -0.29595062    1.0639035    2.0520709   0.18279736   0.18058396   0.18344581 
 8848000   0.90321205    0.1797381  -0.29563476    1.0591156    2.0335259   0.17857603   0.18147312   0.17916514 
 8849000   0.90164282   0.18090176  -0.29748942    1.0549072     2.035626   0.17959299   0.18151111   0.18160119 
 8850000   0.90362075   0.17792442  -0.29859488    1.0567685    2.0213463   0.17511104   0.17906087   0.17960135 
 8851000   0.89573021   0.17843669  -0.29847042    1.0450577    2.0124127    0.1799862   0.17662444   0.17869942 
 8852000   0.89753023   0.18194911  -0.29147041    1.0547576    2.0411544   0.18252469   0.18038179   0.18294085 
 8853000   0.89836191   0.18137775  -0.29329684    1.0541787     2.037478   0.18279302   0.18242662   0.17891362 
 8854000    0.9009345   0.18082649  -0.29552121     1.055813    2.0361238   0.18389991   0.18131142   0.17726815 
 8855000   0.90060999   0.18059038  -0.29740146     1.053446    2.0324767   0.18408908   0.17603399   0.18164807 
 8856000   0.90045496   0.18204666  -0.29246712    1.0581478    2.0450734   0.17874576   0.18370889   0.18368531 
 8857000   0.89365912   0.17928946  -0.29614007    1.0442816    2.0162597   0.17934711   0.17966873   0.17885253 
 8858000   0.88772115   0.17728901   -0.2956992     1.035816    1.9969491   0.17843467    0.1785738   0.17485857 
 8859000   0.89636799     0.183521  -0.29439529    1.0500895    2.0450079   0.18323014   0.18331537   0.18401748 
 8860000   0.90060716   0.18107385  -0.29488123     1.055962    2.0376138   0.18073781     0.178453   0.18403074 
 8861000   0.90553785   0.18237026  -0.29530308    1.0629358    2.0516158   0.18410857   0.18361115   0.17939108 
 8862000   0.90692149   0.18230662  -0.29536525     1.064949    2.0532839   0.18296055   0.18158503   0.18237428 
 8863000   0.90407985   0.18048543  -0.29799677    1.0580552     2.036517   0.17987683   0.18307164   0.17850783 
 8864000   0.89551307   0.17591408  -0.29650458    1.0466979    2.0003771   0.17430299   0.18165155   0.17178771 
 8865000   0.90027878   0.17407861  -0.29839574    1.0519549    1.9956835   0.17350624   0.17510157   0.17362801 
 8866000   0.89517058   0.18163926  -0.29553242    1.0471563    2.0318733   0.18484532       0.1772   0.18287247 
 8867000   0.88871693   0.17570317  -0.29552135    1.0374874    1.9900232    0.1766535   0.17772612   0.17272989 
 8868000   0.89609116   0.17611724  -0.29742654     1.046643    2.0014236    0.1760994   0.17372688   0.17852545 
 8869000   0.90166973   0.17829514  -0.29827434    1.0541626    2.0207502   0.18000235   0.17423007   0.18065299 
 8870000   0.89971675   0.17950216  -0.29711028    1.0523974    2.0255285   0.17981875   0.17722835   0.18145936 
 8871000   0.90088408   0.17991741  -0.29446999    1.0567886     2.032171   0.18087051   0.17687313    0.1820086 
 8872000   0.90597141   0.18197916  -0.29533727    1.0635519    2.0501116   0.18201443    0.1782933   0.18562976 
 8873000   0.90387498   0.17779083  -0.29817792    1.0575668    2.0214204   0.17918724   0.17595885    0.1782264 
 8874000   0.90718102     0.183838   -0.2946495     1.066054     2.062691   0.18070675   0.18396959   0.18683767 
 8875000   0.90772081   0.17999598  -0.29521605    1.0662971    2.0421054   0.17910276   0.18253047   0.17835472 
 8876000    0.9051316   0.18136615  -0.29756415    1.0600654    2.0433018   0.18063267   0.17949271   0.18397308 
 8877000   0.90529521   0.18507521  -0.29054945    1.0673255    2.0706697   0.18428393   0.18896706   0.18197464 
 8878000   0.89901551   0.17938478  -0.29330309    1.0551528    2.0276476   0.17671133   0.17837982    0.1830632 
 8879000   0.90235454   0.18065146  -0.29687343    1.0565907    2.0359526   0.18182034   0.18154008   0.17859397 
 8880000    0.8949867   0.18220152  -0.29428394     1.048129    2.0358942   0.18208422   0.18031286   0.18420749 
 8881000   0.89353338   0.18348144  -0.29205453    1.0481785    2.0428825   0.18656878   0.18257428   0.18130125 
 8882000   0.90139322   0.18016409  -0.29490999    1.0571122     2.033832   0.18281113   0.17851463   0.17916652 
 8883000   0.90349861   0.17928108  -0.29846631    1.0567139    2.0286465   0.17823908   0.17944543   0.18015873 
 8884000   0.90692949    0.1828056  -0.29481213    1.0655141    2.0565541    0.1842585   0.18014386   0.18401443 
 8885000   0.89767204   0.18219127   -0.2948025    1.0516382    2.0393478   0.17925466   0.18402076   0.18329839 
 8886000   0.89630791    0.1809282  -0.29531252    1.0490821    2.0299443   0.18024461   0.18076331   0.18177668 
 8887000   0.89557283   0.17997251  -0.29706547    1.0462266    2.0219077     0.179113   0.18158023   0.17922432 
 8888000   0.90085059   0.17944484  -0.29544399    1.0557643    2.0285848   0.18012212   0.17751569   0.18069671 
 8889000   0.90876411   0.17900056  -0.29629074    1.0667873    2.0371992   0.17782433   0.18001319   0.17916415 
 8890000   0.89980603   0.18106412  -0.29179207    1.0578495    2.0394485   0.18135186   0.18212694   0.17971355 
 8891000   0.90287618   0.18445167  -0.29393155     1.060315    2.0602789   0.18121797   0.18380841   0.18832863 
 8892000   0.90766572   0.18191725  -0.29587759    1.0655529     2.051777   0.18209758   0.18059373   0.18306044 
 8893000   0.91119062   0.18051654  -0.29590426    1.0708133    2.0494438   0.18069417   0.17998261   0.18087285 
 8894000   0.90157541   0.18108832  -0.29512725    1.0571683    2.0388985   0.17989052    0.1807962   0.18257823 
 8895000   0.89899274     0.179683  -0.29810734    1.0503143    2.0244259   0.18116295   0.17779654    0.1800895 
 8896000   0.89554758   0.17724224  -0.29644209    1.0468121    2.0076917   0.17725752   0.17781929   0.17664991 
 8897000    0.8960319   0.17579854  -0.29694261     1.047038    2.0000909   0.17746604   0.17807589   0.17185368 
 8898000   0.90459149   0.17849504   -0.2976008    1.0592186    2.0268899   0.17743588   0.18094771   0.17710153 
 8899000   0.90572103   0.17991506  -0.29700107    1.0615126    2.0368822   0.17969217   0.17693869   0.18311431 
 8900000   0.90633928   0.18071817   -0.2961703    1.0632706    2.0429942   0.18204534   0.17852094   0.18158823 
 8901000   0.90138572   0.17835059  -0.29889724    1.0531137     2.020002   0.17720792   0.17986615    0.1779777 
 8902000   0.89531909   0.17798721  -0.29387419    1.0490373    2.0139556   0.17415802   0.18237352   0.17743011 
 8903000   0.89335346   0.17907514  -0.29379658    1.0461666    2.0169828   0.17698955   0.17843791   0.18179796 
 8904000   0.89181891   0.17806036  -0.29744887    1.0402126    2.0055274   0.17795544   0.17932276   0.17690288 
 8905000   0.89765414   0.17832492  -0.29776155    1.0486523    2.0154014   0.17722788   0.17894287     0.178804 
 8906000   0.89886868   0.17867755  -0.29731735    1.0509183     2.019579   0.17642706   0.17954195   0.18006365 
 8907000   0.89605751   0.17861336  -0.29505953    1.0489595    2.0172723   0.18012867   0.17884746   0.17686396 
 8908000   0.89846288   0.18002921  -0.29639711    1.0512298    2.0272183    0.1821732   0.18100492    0.1769095 
 8909000   0.89876327   0.18026066  -0.29512419    1.0529533    2.0301965   0.18182257   0.17524618   0.18371323 
 8910000    0.8994096    0.1810534  -0.29532686    1.0537201     2.035261   0.18071673   0.17822956   0.18421391 
 8911000   0.90356915   0.17877971  -0.29908591       1.0562    2.0254147   0.17803077   0.18378594   0.17452242 
 8912000   0.90169737   0.17914126  -0.29942293    1.0530555    2.0242302   0.17798631   0.18145861   0.17797885 
 8913000    0.8890679   0.17466081  -0.29848813     1.035047     1.981932   0.17385038    0.1717225   0.17840956 
 8914000   0.89831635   0.17880394  -0.29799381    1.0494133    2.0187593   0.18028599   0.17868512   0.17744073 
 8915000   0.89965827   0.18144759  -0.29615782    1.0532621      2.03694   0.17549178   0.18518015   0.18367083 
 8916000   0.89775954   0.17686278  -0.30042871    1.0461433    2.0049657    0.1763576    0.1795676   0.17466315 
 8917000    0.8987789   0.17853493  -0.29743783    1.0506631    2.0185507    0.1741441   0.18071935   0.18074133 
 8918000     0.909049   0.18155471  -0.29529637     1.068209    2.0524676    0.1823301   0.18087762   0.18145641 
 8919000   0.89760276   0.18019047  -0.29298951    1.0533473      2.03021   0.17655147   0.18283069   0.18118926 
 8920000   0.90188626   0.17934322  -0.29692933    1.0558324    2.0281019   0.18181266   0.18108212   0.17513487 
 8921000   0.90542703   0.17644845  -0.29790438    1.0601683    2.0167444   0.17768641   0.17593933    0.1757196 
 8922000   0.91125111   0.18192232  -0.29484204    1.0719663    2.0582179   0.17878256   0.18122322    0.1857612 
 8923000   0.91018135    0.1810585  -0.29590241    1.0693014    2.0508699   0.18067206   0.18120364   0.18129979 
 8924000   0.90300023   0.17904066  -0.29778887    1.0566438     2.027273   0.17843964   0.18157834   0.17710401 
 8925000   0.89583867   0.18233151   -0.2943518     1.049339    2.0378089   0.18286431   0.17956201   0.18456821 
 8926000   0.89271689   0.18157791  -0.29208804    1.0469203    2.0313048   0.18057871   0.18204639   0.18210863 
 8927000   0.89820445   0.17686377  -0.29819412    1.0490452    2.0078729   0.17708811   0.17785428   0.17564892 
 8928000   0.90367906   0.18057135  -0.29435655    1.0610943    2.0400219   0.18282562   0.18092851   0.17795994 
 8929000    0.9072733   0.18251977  -0.29382536    1.0670166     2.056507   0.17924515    0.1844408   0.18387335 
 8930000   0.90203392   0.18044627  -0.29641204    1.0565712    2.0348207   0.18321998   0.18289258   0.17522625 
 8931000   0.89431011   0.17882015  -0.29434427    1.0470538    2.0164877   0.17782068   0.17962491   0.17901488 
 8932000   0.89924785   0.17866066  -0.29520618    1.0535981    2.0221673   0.18082256   0.17790243     0.177257 
 8933000    0.9035421   0.18080407  -0.29420649    1.0610389    2.0412281   0.17602102   0.18556432   0.18082687 
 8934000   0.90157091   0.18066853  -0.29452396    1.0577648    2.0372192   0.18206238   0.18003245   0.17991076 
 8935000   0.90476954   0.18619532  -0.29415357    1.0629329    2.0723496   0.18612042   0.18845057   0.18401497 
 8936000   0.90097781   0.17863762  -0.29730061    1.0540985    2.0225428   0.18129349   0.17558195   0.17903741 
 8937000   0.90050411   0.17725443   -0.2943352    1.0563534     2.017299   0.17318037   0.17660063   0.18198228 
 8938000   0.89945675   0.17844076  -0.29692732    1.0521903    2.0195674   0.17803781   0.17657159   0.18071286 
 8939000   0.89556872    0.1808597  -0.29594771    1.0473382     2.027829   0.18267409   0.18098191    0.1789231 
 8940000   0.88859336   0.17517929  -0.29887983    1.0339436    1.9836393    0.1749753   0.17601122   0.17455136 
 8941000   0.89039977   0.17618961  -0.29893882    1.0365941     1.991767   0.17857067   0.17638479   0.17361337 
 8942000   0.89814261   0.17621751  -0.29564761    1.0514989    2.0068231    0.1781328   0.17465199   0.17586774 
 8943000   0.90294012   0.17991345  -0.29837988    1.0559626    2.0313235   0.18580824   0.17559216   0.17833995 
 8944000   0.90440607   0.17993163  -0.29494449    1.0615968    2.0370563   0.17918053   0.17658247   0.18403191 
 8945000   0.90588066    0.1829597  -0.29321396    1.0655391    2.0574146   0.18024828   0.18218119   0.18644964 
 8946000   0.91036717   0.18608811  -0.28917311    1.0763094    2.0851448   0.18369105   0.18819925   0.18637402 
 8947000   0.90378858   0.18038092   -0.2945099    1.0611052    2.0390004   0.18389373   0.18007736   0.17717168 
 8948000   0.89878508   0.17840982  -0.29581387    1.0522963    2.0195057   0.17472213   0.18057338   0.17993395 
 8949000   0.89755309      0.18152  -0.29620114    1.0500612    2.0341317   0.18026401   0.18274815   0.18154785 
 8950000   0.89652352   0.17955625  -0.29429557    1.0504225    2.0238469   0.17872515   0.18111186   0.17883174 
 8951000   0.89275086   0.17746507  -0.29739554    1.0416638    2.0037514   0.17375476   0.18522023   0.17342022 
 8952000   0.88764749   0.17608866   -0.2972511    1.0341536    1.9887792   0.17669977   0.17673712   0.17482909 
 8953000   0.89782913   0.18226902  -0.29318321    1.0534931    2.0416242   0.17952521   0.18282796   0.18445388 
 8954000   0.90020383   0.17911041  -0.29444576    1.0557925    2.0267999    0.1762395    0.1814008   0.17969093 
 8955000   0.90530413   0.17932173  -0.29900845    1.0588799    2.0310329   0.18178558   0.17776368   0.17841594 
 8956000   0.91036448   0.18424571  -0.29356437    1.0719141    2.0707614   0.18229382   0.18527602   0.18516729 
 8957000   0.90094786   0.17904056  -0.29772432    1.0536299    2.0242586   0.17969836   0.17707374   0.18034957 
 8958000   0.89938696   0.17573087    -0.298977     1.050036     2.002722   0.17467378   0.17575298   0.17676586 
 8959000    0.8985749   0.17945693  -0.29454575    1.0532492    2.0261352   0.17739837   0.18152083    0.1794516 
 8960000   0.89388935   0.17967385  -0.29785947    1.0429075    2.0169695   0.17823836   0.17970081   0.18108239 
 8961000   0.89936832   0.17837098  -0.29704154    1.0519435    2.0189423    0.1772136   0.18001194   0.17788741 
 8962000   0.89893736   0.18440166  -0.29308142    1.0552572      2.05495   0.18648197   0.18508335   0.18163967 
 8963000    0.9009742   0.17812574  -0.29882591    1.0525678    2.0182371   0.17826075   0.17920179   0.17691469 
 8964000   0.90360363   0.18106097  -0.29464577    1.0606919    2.0422739   0.18045732   0.18229677   0.18042883 
 8965000   0.90896278   0.18300715  -0.29495141    1.0684246    2.0605573   0.18212633   0.18346738   0.18342774 
 8966000   0.90181183   0.18133841  -0.29580333    1.0568468    2.0399328   0.18003242   0.18407357   0.17990924 
 8967000    0.9040353   0.18127638  -0.29552146    1.0604637    2.0432134   0.17942337   0.18559455   0.17881122 
 8968000   0.90330315   0.17886328  -0.29515325    1.0597337    2.0294014   0.17790493   0.17806116   0.18062375 
 8969000   0.89946068    0.1822464  -0.29360007    1.0555235     2.043532   0.18326119     0.182203   0.18127501 
 8970000   0.89906803   0.17894028  -0.29486421    1.0536704    2.0237555   0.17335845   0.18044382   0.18301857 
 8971000   0.89809709    0.1798727  -0.29540052    1.0516778    2.0268178   0.17970033   0.17896883   0.18094896 
 8972000   0.88857157    0.1795521  -0.29625019    1.0365405    2.0099424   0.18367758   0.17392527   0.18105344 
 8973000   0.89113976    0.1822688  -0.29349847    1.0431443    2.0312743   0.18447859   0.18056986   0.18175795 
 8974000   0.89939813   0.17992948  -0.29625151    1.0527782     2.028226   0.17564435   0.18190431   0.18223977 
 8975000   0.90056583   0.18118119  -0.29281866    1.0579625    2.0401962   0.18255718   0.18177557   0.17921081 
 8976000   0.90402377   0.18158987   -0.2956573    1.0603106    2.0447598   0.17932528   0.18304128   0.18240305 
 8977000   0.90431171   0.17864895  -0.29863886    1.0577609    2.0262666   0.17998037   0.17919344   0.17677303 
 8978000   0.89959954   0.18029666  -0.29533441    1.0539974    2.0314358   0.17931224   0.17937355   0.18220418 
 8979000   0.88703928   0.17816719  -0.29714238      1.03335     1.999244   0.17802111   0.17912188   0.17735857 
 8980000   0.89583924   0.17992686  -0.29731387    1.0463778    2.0218114   0.18033811   0.17706922   0.18237326 
 8981000   0.89978942   0.17894312  -0.29467702    1.0549396    2.0250401   0.17720235   0.18073005   0.17889696 
 8982000   0.90409767   0.18141362  -0.29640148    1.0596772     2.043171   0.18099689    0.1805359   0.18270806 
 8983000   0.89824667   0.18010084  -0.29319333    1.0541093    2.0304861   0.17879969   0.17678739   0.18471543 
 8984000   0.90044484   0.17784169  -0.29492788    1.0556718    2.0198011   0.17691744   0.17604917   0.18055844 
 8985000   0.90194226   0.17831434  -0.29672902    1.0561167    2.0228084   0.17436946   0.17998281   0.18059075 
 8986000   0.90160071   0.17971466  -0.29578177    1.0565517    2.0308349   0.18115452   0.17768871   0.18030073 
 8987000   0.90943192   0.17886905  -0.29635764     1.067722     2.037421   0.18061271   0.17726788   0.17872654 
 8988000   0.90266232   0.17856225  -0.29579548    1.0581303     2.026166   0.17741065   0.18077551    0.1775006 
 8989000   0.90334768   0.18174286  -0.29528841    1.0596653     2.044944   0.18292182    0.1786412   0.18366555 
 8990000   0.90009552   0.18226354  -0.29310186    1.0569739    2.0450753    0.1803746   0.18013384   0.18628217 
 8991000    0.8980406   0.18084537  -0.29490735    1.0520862    2.0324993    0.1753379   0.18249318   0.18470502 
 8992000    0.8922037   0.17763072  -0.29747846    1.0407602    2.0037458   0.17793185   0.17830593   0.17665437 
 8993000   0.89702202   0.18085839  -0.29525403    1.0502117    2.0306955   0.18119569   0.18306034   0.17831915 
 8994000   0.90065982   0.17714124  -0.29957562    1.0513466    2.0116786   0.17645224   0.17847367   0.17649782 
 8995000   0.89488871   0.18125005  -0.29322657    1.0490394    2.0316464   0.18078527   0.18148212   0.18148275 
 8996000   0.90051912   0.18113788  -0.29608828    1.0546229    2.0366217   0.18253905   0.17990896   0.18096563 
 8997000   0.90378341   0.17840749  -0.29667416    1.0589332    2.0261299   0.17674919   0.17704149   0.18143179 
 8998000   0.90492533   0.17900398  -0.29784675    1.0594734    2.0299038   0.17804762   0.18211008   0.17685426 
 8999000   0.90489031   0.17863385  -0.29379561     1.063472    2.0318959   0.17646324   0.17937552    0.1800628 
 9000000   0.90288609   0.18237696  -0.29390062    1.0603608    2.0490771   0.18019124   0.18525807   0.18168156 
Loop time of 3672.69 on 1 procs for 1000000 steps with 20000 atoms

Performance: 117625.024 tau/day, 272.280 timesteps/s
99.9% CPU use with 1 MPI tasks x 1 OpenMP threads

MPI task timing breakdown:
Section |  min time  |  avg time  |  max time  |%varavg| %total
---------------------------------------------------------------
Pair    | 2191.7     | 2191.7     | 2191.7     |   0.0 | 59.68
Neigh   | 1097.8     | 1097.8     | 1097.8     |   0.0 | 29.89
Comm    | 78.111     | 78.111     | 78.111     |   0.0 |  2.13
Output  | 25.171     | 25.171     | 25.171     |   0.0 |  0.69
Modify  | 242.98     | 242.98     | 242.98     |   0.0 |  6.62
Other   |            | 36.89      |            |       |  1.00

Nlocal:    20000 ave 20000 max 20000 min
Histogram: 1 0 0 0 0 0 0 0 0 0
Nghost:    8867 ave 8867 max 8867 min
Histogram: 1 0 0 0 0 0 0 0 0 0
Neighs:    167314 ave 167314 max 167314 min
Histogram: 1 0 0 0 0 0 0 0 0 0

Total # of neighbors = 167314
Ave neighs/atom = 8.3657
Neighbor list builds = 100000
Dangerous builds = 99900

write_restart 	out.restart.sys.final.${temp}
write_restart 	out.restart.sys.final.0.9
unfix intg
unfix ploadx
undump  trj
uncompute denprof
unfix   denprof

next    t
jump    SELF temperatureloop
variable t loop 10
variable  temp  equal 0.1+($t-1)*0.1
variable  temp  equal 0.1+(10-1)*0.1

#OUTPUT
# density profile
compute denprof all chunk/atom bin/1d x center ${xbin}
compute denprof all chunk/atom bin/1d x center 0.05
fix     denprof all ave/chunk 100 1000 500000 denprof density/number file out.profile.density.${temp}.data
fix     denprof all ave/chunk 100 1000 500000 denprof density/number file out.profile.density.1.data

#OUTPUT
log   log.lammps.${temp}
log   log.lammps.1
