thermo 1000
thermo_style custom step temp press pe etotal enthalpy pxx pyy pzz
dump 		trj all atom 500 out.sys_nvt.${temp}.lammpstrj
dump 		trj all atom 500 out.sys_nvt.0.8.lammpstrj
restart 100000 out.restart1.${temp} out.restart2.${temp}
restart 100000 out.restart1.0.8 out.restart2.${temp}
restart 100000 out.restart1.0.8 out.restart2.0.8

fix ploadx all balance 10000 1.05 shift x 20 1.05
fix intg all nvt temp ${temp} ${temp} ${tdump}
fix intg all nvt temp 0.8 ${temp} ${tdump}
fix intg all nvt temp 0.8 0.8 ${tdump}
fix intg all nvt temp 0.8 0.8 1
run ${Nrun}
run 1000000
Per MPI rank memory allocation (min/avg/max) = 12.56 | 12.56 | 12.56 Mbytes
Step Temp Press PotEng TotEng Enthalpy Pxx Pyy Pzz 
 7000000    0.6985686   0.12820065  -0.31782528   0.72997523    1.4249867   0.12953266   0.12524003   0.12982927 
 7001000   0.80640092   0.15618812  -0.30339896   0.90614194    1.7528812   0.15442433   0.15735771   0.15678231 
 7002000   0.80108799   0.15252777  -0.30769552   0.89387638    1.7207719   0.15289277   0.15227475   0.15241579 
 7003000   0.79634955   0.15460604  -0.30577276   0.88869183    1.7268542   0.15127736   0.15536176     0.157179 
 7004000   0.79576063   0.15212305   -0.3078984   0.88568286    1.7103843    0.1522413   0.15242026    0.1517076 
 7005000   0.79684158   0.15684617  -0.30263481   0.89256779    1.7428746   0.15993865   0.15171689   0.15888299 
 7006000   0.80307352   0.15491738  -0.30506854   0.89948152    1.7393318    0.1563455   0.15500683    0.1533998 
 7007000   0.80394405   0.15051396  -0.30952417   0.89633161    1.7123097   0.15016204    0.1522172   0.14916263 
 7008000   0.79961401   0.15159531     -0.30742   0.89194105    1.7137815   0.15199451   0.14960156   0.15318987 
 7009000    0.7933015   0.15094325  -0.30772295   0.88216981    1.7004752   0.14875595   0.15211332   0.15196047 
 7010000   0.79721932   0.15029751   -0.3079477   0.88782148    1.7026262   0.14722925   0.15607941   0.14758389 
 7011000   0.79953712   0.15113526   -0.3068919   0.89235381    1.7117001   0.14986124   0.15307433   0.15047021 
 7012000   0.80252454   0.15567818  -0.30787945   0.89584718    1.7398219   0.15538512   0.15418503   0.15746438 
 7013000   0.80323556   0.15242329  -0.30829521   0.89649788     1.722827   0.15404122   0.15128509   0.15194356 
 7014000   0.80721112   0.15494065  -0.30594399   0.90481214    1.7447885    0.1567891    0.1533444   0.15468843 
 7015000   0.80195091   0.15297422  -0.30756834   0.89529787    1.7246137   0.15071279   0.15407956    0.1541303 
 7016000   0.80255612   0.15468716  -0.30629605   0.89747794    1.7360801   0.15064572   0.15379774   0.15961802 
 7017000   0.79894299   0.15412716   -0.3055393   0.89281526    1.7283815   0.15436215   0.15136611   0.15665322 
 7018000    0.7924022   0.15702155  -0.30175182   0.88679205    1.7380496   0.15868605   0.15508604   0.15729256 
 7019000   0.79586417   0.15230382  -0.30417934   0.88955723    1.7152387   0.15137162   0.15276452   0.15277532 
 7020000   0.80086031   0.15274541  -0.30634705   0.89488335    1.7229588   0.15593296   0.15157091   0.15073236 
 7021000   0.80070527   0.15241404  -0.30666666   0.89433119    1.7206101   0.15002192   0.15381863   0.15340157 
 7022000   0.79799571   0.15739386  -0.30187873   0.89505499     1.748331   0.16111364   0.15580904   0.15525891 
 7023000   0.79878265   0.15587608  -0.30241112   0.89570295    1.7407506   0.15540677   0.15541737    0.1568041 
 7024000   0.80377028   0.15321444  -0.30513535   0.90045978     1.731078   0.15367108   0.15523101   0.15074124 
 7025000   0.80730834     0.153126  -0.30751457   0.90338739    1.7335261   0.15267022   0.15281842   0.15388936 
 7026000   0.81069677   0.15296486  -0.30645522   0.90952913    1.7387942   0.15630313   0.15007527   0.15251618 
 7027000   0.79790916   0.15546731  -0.30357151   0.89323239     1.736064   0.15762244   0.15462826   0.15415124 
 7028000   0.79561333   0.15456932  -0.30458319   0.88877714    1.7267405   0.15700761     0.152906   0.15379435 
 7029000   0.79588051   0.15427855  -0.30485289   0.88890819    1.7252952   0.15544939   0.15233173   0.15505453 
 7030000   0.79607891   0.15191119  -0.30779805   0.88626062    1.7098135   0.15353234   0.15082867   0.15137255 
 7031000   0.78831532    0.1527279  -0.30879601   0.87361786    1.7015983   0.14989088   0.15396157   0.15433125 
 7032000   0.79921876    0.1523475  -0.30496906   0.89379914    1.7197174   0.14993348   0.15539238   0.15171665 
 7033000    0.8015932   0.15473192  -0.30753231   0.89479737    1.7336422   0.15664691   0.15482621   0.15272264 
 7034000   0.80726142   0.15543407  -0.30665417   0.90417741    1.7468288   0.15489149   0.15815029   0.15326043 
 7035000   0.80152831   0.15508552  -0.30529694   0.89693541    1.7376972   0.15588763   0.15223684   0.15713209 
 7036000   0.80103347    0.1555966    -0.304851   0.89663912    1.7401716   0.15537863   0.15546121   0.15594997 
 7037000   0.80061377   0.15474249  -0.30667551    0.8941851    1.7330872    0.1525061   0.15399073   0.15773063 
 7038000   0.79820934   0.15505314  -0.30397763   0.89327651    1.7338628   0.15263188   0.15510643   0.15742112 
 7039000   0.78939142   0.15347023  -0.30330259   0.88072533    1.7127302   0.15516078   0.15257265   0.15267725 
 7040000   0.79664503   0.15278802  -0.30529614   0.88961166    1.7179181   0.15485755   0.14927197   0.15423455 
 7041000   0.79990842   0.15611242  -0.30688629   0.89291634    1.7392452   0.15740648   0.15955444   0.15137633 
 7042000   0.80123439   0.15569473  -0.30300521   0.89878628    1.7428508   0.15837804   0.15292415     0.155782 
 7043000   0.80708987   0.15471837  -0.30477136    0.9058029    1.7445743   0.15073806   0.15659223   0.15682482 
 7044000   0.79775523   0.15855513   -0.3027887    0.8937843    1.7533558   0.15524637   0.16192495   0.15849407 
 7045000   0.79825426   0.15302255  -0.30647347   0.89084805    1.7204259   0.15285566   0.14995532   0.15625667 
 7046000   0.79783218   0.15208666   -0.3062075   0.89048094    1.7149851   0.15206388   0.15274662   0.15144949 
 7047000   0.79502969   0.15591965  -0.30375228   0.88873263    1.7340165   0.15810777   0.15557253   0.15407865 
 7048000   0.80219729   0.15645242   -0.3043946   0.89884117    1.7470133   0.15362484   0.15794379   0.15778863 
 7049000   0.80633343   0.15589123  -0.30501882   0.90442085    1.7495506    0.1554877   0.15629566   0.15589033 
 7050000     0.804282    0.1549787  -0.30577035   0.90059233     1.740775   0.15299913   0.15694758    0.1549894 
 7051000   0.80211285   0.15424212  -0.30692608   0.89618304    1.7323725   0.15475375   0.15510577   0.15286683 
 7052000   0.79513654   0.15270686  -0.30593161   0.88671356      1.71458    0.1525875   0.15250652   0.15302655 
 7053000   0.79043099   0.15309988  -0.30663688   0.87895032    1.7089474    0.1559354    0.1500901   0.15327413 
 7054000   0.79414005   0.15295038  -0.30671689   0.88443364    1.7136202   0.15451098   0.15325064   0.15108952 
 7055000   0.79719832   0.15696862  -0.30241234   0.89332535     1.744296   0.15648807   0.15876564   0.15565215 
 7056000   0.80080552   0.15590652  -0.30410404   0.89704418    1.7422569   0.15663757   0.15758056   0.15350144 
 7057000   0.80208325   0.15594461  -0.30460176   0.89846296    1.7438821   0.15831952   0.15550061    0.1540137 
 7058000   0.80102247   0.15574612  -0.30579809   0.89567554    1.7400186   0.15608932     0.154877   0.15627204 
 7059000   0.80092987   0.15211184  -0.30691059   0.89442414    1.7190648   0.15041212   0.15483939   0.15108401 
 7060000   0.79434423   0.15640364  -0.30255938   0.88889738    1.7368051   0.15580241   0.15677098   0.15663752 
 7061000    0.7981927   0.15497909  -0.30463293   0.89259626    1.7327811   0.15636364   0.15702106   0.15155258 
 7062000   0.79576292   0.15215427  -0.30498827   0.88859643    1.7134671    0.1512737   0.15306867   0.15212044 
 7063000   0.80922659   0.15634874  -0.30243628   0.91134291     1.758953   0.16033898   0.15295993   0.15574731 
 7064000   0.80583832   0.15600296  -0.30240418   0.90629286    1.7520284   0.15618819   0.15565419   0.15616651 
 7065000   0.80352614   0.15410523  -0.30405886   0.90117009    1.7366174   0.15637436   0.15584435   0.15009696 
 7066000   0.79908926   0.15575634  -0.30236102   0.89621293    1.7406114   0.15487252   0.15415916   0.15823734 
 7067000   0.79965905   0.15638227  -0.30476015   0.89466846    1.7424603   0.15436739   0.15723399   0.15754542 
 7068000    0.7974989   0.15415781  -0.30579873    0.8903898    1.7261222   0.15419752    0.1544861   0.15378982 
 7069000   0.80008481   0.15431706  -0.30427306   0.89579414    1.7323899   0.15775314   0.15369675    0.1515013 
 7070000   0.79714813   0.15707346  -0.30269241   0.89297001     1.744509   0.15521563   0.15456013   0.16144462 
 7071000   0.79807187   0.15467903  -0.30460172   0.89244623    1.7310043   0.15393729   0.15267666   0.15742314 
 7072000   0.79613154    0.1527831   -0.3085379    0.8855997    1.7138794   0.15549526   0.14913883   0.15371519 
 7073000   0.78975092   0.14995385  -0.30819066   0.87637648    1.6893181   0.15159706   0.14843841   0.14982608 
 7074000   0.79847735   0.15459548  -0.30341538   0.89424077    1.7323459    0.1531808    0.1548558   0.15574985 
 7075000   0.79609024   0.15542032  -0.30522342   0.88885224    1.7314291   0.15504324   0.15410593   0.15711179 
 7076000   0.79007438   0.15344299  -0.30307282   0.88197949    1.7138367   0.15342086   0.15639807   0.15051005 
 7077000     0.798756   0.15460627  -0.30389809     0.894176    1.7323396   0.15552206   0.15643679   0.15185996 
 7078000     0.799762   0.15587167  -0.30434635   0.89523667    1.7402604   0.15345345   0.15671391   0.15744765 
 7079000   0.80420908   0.15505739  -0.30663875   0.89961456    1.7402239   0.15363254   0.15702073   0.15451891 
 7080000   0.81050779   0.15632811  -0.30610172   0.90959918    1.7570974   0.15759575   0.15758468   0.15380391 
 7081000   0.80598254   0.15550531  -0.30543352   0.90347985    1.7465174   0.15454465   0.15362822   0.15834306 
 7082000   0.80257701   0.15142552  -0.30769189   0.89611343    1.7170333   0.15437546   0.14874284   0.15115825 
 7083000   0.79551864   0.15365395  -0.30583101   0.88738729    1.7203881   0.15508714    0.1509316    0.1549431 
 7084000    0.7943421   0.15551363   -0.3044622   0.88699137     1.730074   0.15266685   0.15875686   0.15511717 
 7085000   0.78978334   0.15194966  -0.30838631   0.87622946    1.6999909   0.15196846   0.15328629   0.15059423 
 7086000   0.79689999   0.15375418  -0.30395769   0.89133253    1.7248768   0.15150011   0.15502145   0.15474098 
 7087000   0.79998344   0.15639229  -0.30432811   0.89558705    1.7434332   0.15683618    0.1555712    0.1567695 
 7088000   0.80243143   0.15485491  -0.30399057    0.8995964     1.739108   0.15586284   0.15537952   0.15332236 
 7089000   0.80492166   0.15443849  -0.30564846   0.90167366    1.7389277   0.15557638   0.15058881   0.15715028 
 7090000   0.80474133   0.15381847  -0.30541276   0.90163888    1.7355316   0.15341583   0.15570016   0.15233943 
 7091000   0.80248982   0.15846221   -0.3029202   0.90075434    1.7598221   0.15946804   0.15587346   0.16004512 
 7092000   0.79072616   0.15124606  -0.30574484    0.8802851    1.7002321    0.1526405   0.15170629   0.14939138 
 7093000   0.79442542   0.15343598  -0.30145198   0.89012656    1.7219458   0.15479833   0.15244731   0.15306231 
 7094000   0.79496942   0.15388582  -0.30539221    0.8870023    1.7212602   0.15568719    0.1532551   0.15271517 
 7095000   0.78872387   0.14957023  -0.30583856   0.87718809      1.68805   0.15240446   0.14751974   0.14878648 
 7096000   0.79787815   0.15327741  -0.30261079   0.89414659    1.7251061   0.15121485   0.15272102   0.15589636 
 7097000   0.80203683   0.15260732  -0.30518533   0.89780976    1.7251365   0.15388223   0.15406715   0.14987258 
 7098000   0.80185883   0.15613457  -0.30402662   0.89870148    1.7451505   0.15481625   0.15804275   0.15554472 
 7099000   0.80373082   0.15750653  -0.30339812   0.90213782    1.7560246   0.15528683   0.16109694   0.15613581 
 7100000   0.79998409   0.15488464  -0.30512824   0.89478789    1.7344607   0.15849125   0.15639365   0.14976901 
 7101000   0.79998977   0.15483567  -0.30493741   0.89498724    1.7343946   0.15480719   0.15531824   0.15438159 
 7102000   0.79801029   0.14991942   -0.3060152   0.89094038    1.7036953   0.15098374   0.14996791    0.1488066 
 7103000   0.79260419   0.14827189  -0.30702485   0.88182198    1.6856452   0.14831999    0.1490256   0.14747008 
 7104000   0.80077547   0.15527145  -0.30506323   0.89603992    1.7378097   0.15564191    0.1519198   0.15825266 
 7105000   0.80535403   0.15490434  -0.30693011   0.90104053    1.7408201    0.1531657   0.15342053   0.15812681 
 7106000    0.8045659   0.15339837   -0.3068431   0.89994541    1.7315607   0.15049158    0.1526769   0.15702664 
 7107000   0.80299474     0.152973  -0.30683819   0.89759369    1.7269029   0.15600661   0.15007428   0.15283813 
 7108000   0.79356677   0.15358557  -0.30478975   0.88550088     1.718131   0.15604843   0.15268777   0.15202051 
 7109000   0.79234102   0.15164289   -0.3060233    0.8824288    1.7045271   0.15290269   0.15019948    0.1518265 
 7110000    0.8021041   0.15253823  -0.30458563   0.89851037    1.7254626   0.15164752   0.15380513   0.15216204 
 7111000   0.80434076   0.15357151  -0.30549015   0.90096066    1.7335146   0.15525727   0.15363476   0.15182251 
 7112000   0.80068301   0.15566879  -0.30402199   0.89694247    1.7408663   0.15534075    0.1541993   0.15746631 
 7113000   0.79441486    0.1518997  -0.30547264   0.88609007    1.7095806   0.15126441   0.15476771   0.14966697 
 7114000   0.79245468   0.15431301  -0.30504854   0.88357404    1.7201478   0.15436433   0.15452233   0.15405237 
 7115000   0.80471786   0.15389398  -0.30828743     0.898729    1.7330312   0.15840913   0.15280778   0.15046503 
 7116000   0.80407509   0.15412737  -0.30468822   0.90136412    1.7369315   0.15471269   0.15697813   0.15069129 
 7117000   0.80306025   0.15476458  -0.30479499   0.89973515     1.738757   0.15573875   0.15457041   0.15398458 
 7118000   0.79326627   0.15263004  -0.30671554   0.88312437    1.7105743   0.15547792   0.14914014   0.15327206 
 7119000   0.79213013   0.15060399   -0.3043566   0.88377919    1.7002454   0.15322997   0.15055686   0.14802514 
 7120000   0.79993696   0.15608292  -0.30495329   0.89489215    1.7410611   0.15728711   0.15669096   0.15427069 
 7121000   0.80237989    0.1561566  -0.30246602   0.90104364    1.7476121   0.15671144   0.15800431   0.15375406 
 7122000   0.80228357   0.15593454  -0.30194476   0.90142042     1.746785   0.16087965   0.15258408   0.15433988 
 7123000   0.80034325   0.15306969  -0.30571073   0.89474412    1.7245776   0.15598739   0.15104457   0.15217712 
 7124000   0.79555099   0.15389543  -0.30477701    0.8884898    1.7227998    0.1532245   0.15579955   0.15266224 
 7125000   0.79844681   0.15239872  -0.30623177   0.89137857    1.7175745   0.14890703   0.15509258   0.15319655 
 7126000   0.79802404    0.1522592  -0.30784367   0.88913254    1.7145721   0.14872535    0.1557268   0.15232546 
 7127000   0.79868429   0.15414889    -0.304443   0.89352354    1.7292076   0.15401067    0.1496048   0.15883118 
 7128000   0.79832576   0.15282133  -0.30621615   0.89121261    1.7196996   0.15177148   0.15551704   0.15117548 
 7129000   0.79803048   0.15278355  -0.30607236   0.89091351    1.7191957   0.15323423   0.15209402   0.15302241 
 7130000   0.79765264   0.15164065  -0.30634428   0.89007486    1.7121611   0.15273658   0.15137421   0.15081116 
 7131000   0.79690771   0.15554116  -0.30493905   0.89036276    1.7335947   0.15671707   0.15285128   0.15705513 
 7132000   0.79360155   0.15108753  -0.30618602   0.88415678    1.7032444   0.15126168   0.15096407   0.15103685 
 7133000   0.79743042   0.15344247  -0.30796406   0.88812176    1.7199761   0.15272392   0.15424843   0.15335505 
 7134000   0.79941353   0.15458805  -0.30398277   0.89507757    1.7331424   0.15041032   0.15627554   0.15707828 
 7135000    0.8022805   0.15517773  -0.30440623   0.89895436    1.7402161   0.15277349   0.15492289   0.15783681 
 7136000   0.80695204    0.1582916  -0.30306712   0.90730041    1.7654433    0.1550339   0.15889674   0.16094416 
 7137000   0.79744595   0.15429396   -0.3051084   0.89100071    1.7274712   0.15449006   0.15529698   0.15309483 
 7138000   0.80002097   0.15279887  -0.30694753   0.89302393    1.7213892   0.15112047   0.15051635   0.15675979 
 7139000   0.79629795   0.15262301  -0.30624254   0.88814467    1.7155565   0.15329906   0.15187323   0.15269674 
 7140000   0.79615401   0.15336819  -0.30606331     0.888108    1.7195597   0.15707179   0.15228702   0.15074576 
 7141000   0.80106874   0.15368672   -0.3052903   0.89625272    1.7294312   0.15090159    0.1546746   0.15548396 
 7142000   0.80361806   0.15576022  -0.30703238   0.89833443    1.7427539   0.15769857   0.15375506   0.15582702 
 7143000    0.8052457   0.15403855  -0.30729809   0.90051006    1.7355959    0.1515327   0.15568474   0.15489821 
 7144000   0.79947772   0.15199782  -0.30668318   0.89247344    1.7164959   0.14650264   0.15323451    0.1562563 
 7145000   0.79831573   0.15600232  -0.30530068   0.89211304    1.7378451   0.15729985   0.15627101    0.1544361 
 7146000   0.79067727    0.1544422  -0.30352053   0.88243608    1.7197103   0.15843605    0.1554591   0.14943145 
 7147000   0.79734689   0.15506771  -0.30612854   0.88983199    1.7304972   0.15190338   0.15477184    0.1585279 
 7148000   0.80104054   0.15494648  -0.30599077   0.89550996     1.735518   0.15342342   0.15718759   0.15422845 
 7149000   0.80569772   0.15796607  -0.30166904   0.90681711    1.7631952    0.1570814   0.16315122    0.1536656 
 7150000   0.80253336   0.15350554  -0.30518636    0.8985535    1.7307498    0.1539763   0.14971311   0.15682722 
 7151000   0.80081619   0.15473455  -0.30591852    0.8952457    1.7341048   0.15153321   0.15272433    0.1599461 
 7152000   0.79740646   0.15187972  -0.30479124   0.89125865    1.7146409   0.15654912   0.14902189   0.15006814 
 7153000   0.79846318   0.15195821  -0.30387386   0.89376102    1.7175688    0.1527967   0.14860142   0.15447651 
 7154000    0.8003367   0.15039765   -0.3082364   0.89220862    1.7075561   0.15298497   0.14976632   0.14844164 
 7155000   0.79918871   0.15293609  -0.30467174   0.89405139    1.7231605   0.15013828   0.15625022   0.15241977 
 7156000   0.80139418    0.1555827  -0.30370399   0.89832717    1.7417843   0.15738608   0.15835229   0.15100973 
 7157000   0.80785601   0.15770364  -0.30430818   0.90741524    1.7623706   0.16023012   0.15860841    0.1542724 
 7158000   0.80295341   0.15290348  -0.30950416   0.89486574    1.7237981    0.1493701   0.15594026   0.15340008 
 7159000   0.80100313   0.15554462  -0.30644457   0.89500005    1.7382508   0.15795067    0.1540941   0.15458909 
 7160000   0.79867029   0.15302595  -0.30622311   0.89172242    1.7213187   0.15252327   0.15289652   0.15365805 
 7161000   0.79708687   0.15385598  -0.30443553     0.891135    1.7252311   0.15515912   0.15399785   0.15241097 
 7162000      0.79195   0.15113283  -0.30558391    0.8822817    1.7016149   0.14948609   0.15371739     0.150195 
 7163000    0.7998387   0.15638779  -0.30700471   0.89269334    1.7405151   0.15737639   0.15942344   0.15236355 
 7164000   0.80266981   0.15393718  -0.30600584   0.89793867     1.732475   0.15030225   0.15691435   0.15459495 
 7165000   0.80170023   0.15595601  -0.30315718   0.89933304     1.744814    0.1525091   0.15995447   0.15540445 
 7166000   0.80689195   0.15813639  -0.30483194   0.90544547    1.7627469   0.15552917   0.15815316   0.16072684 
 7167000   0.80309478   0.15605968  -0.30452906   0.90005287    1.7460958   0.15440544   0.15425937   0.15951422 
 7168000    0.8045343   0.15733501  -0.30333525   0.90340586    1.7563628   0.15957825    0.1625634   0.14986338 
 7169000   0.80363555   0.15584184  -0.30307453   0.90231852    1.7471805   0.15771377   0.15504071   0.15477103 
 7170000   0.80059596   0.15286024  -0.30556809   0.89526581    1.7239638   0.15333698   0.15259722   0.15264652 
 7171000   0.79866419   0.15681177  -0.30232122   0.89561516    1.7457355   0.15940238   0.15769207   0.15334087 
 7172000    0.7977702     0.153816  -0.30624542   0.89035005    1.7242294   0.14939183   0.15772813   0.15432804 
 7173000   0.79537529   0.15232868  -0.30641462   0.88658866    1.7124049   0.15195084   0.15628192   0.14875328 
 7174000   0.79357025   0.15231453  -0.30615992   0.88413594    1.7098755    0.1525584   0.15007128   0.15431393 
 7175000   0.80199412   0.15431722  -0.30434349   0.89858754    1.7351842   0.15540812   0.15382817   0.15371538 
 7176000   0.80495639   0.15437578  -0.30588884   0.90148537    1.7383995   0.15297614   0.15564601    0.1545052 
 7177000   0.80449788   0.15452848  -0.30594862   0.90073787    1.7384798   0.15552078   0.15321339   0.15485128 
 7178000   0.80241242   0.15425528  -0.30600568   0.89755277    1.7338136   0.15628436   0.15367101   0.15281047 
 7179000   0.79944816   0.15455912  -0.30489997   0.89421231    1.7321204    0.1498404   0.15625154   0.15758543 
 7180000   0.78973443   0.15141931  -0.30420273   0.88033969    1.7012259   0.15184275    0.1484235   0.15399168 
 7181000   0.78913175    0.1518356  -0.30503496   0.87860347    1.7017466    0.1510929   0.15269282   0.15172109 
 7182000   0.79823585   0.15640809  -0.30330228   0.89399163    1.7419235   0.15482267    0.1569215   0.15748011 
 7183000   0.79832547   0.15523589  -0.30330302   0.89412532    1.7357023   0.15663872   0.15407575   0.15499319 
 7184000   0.80129178   0.15352829  -0.30395815   0.89791943    1.7302391   0.15398246   0.15295229   0.15365012 
 7185000   0.80481918   0.15280493  -0.30809857   0.89906984    1.7274679   0.14962349   0.15688606   0.15190523 
 7186000   0.80472371   0.15464164  -0.30554924   0.90147597    1.7398314    0.1575833   0.15195686   0.15438476 
 7187000   0.80533705   0.15575233  -0.30593434   0.90201083    1.7463876   0.15866891   0.15476662   0.15382146 
 7188000   0.79608665   0.15234873  -0.30593389   0.88813638    1.7140613   0.14940234   0.15463251   0.15301134 
 7189000   0.79741484   0.15176558  -0.30883927   0.88722319    1.7099867    0.1516861   0.15042035   0.15319031 
 7190000   0.79639442   0.15195664   -0.3076903    0.8868416    1.7106409   0.14978757   0.15390477   0.15217758 
 7191000    0.7960146   0.15490408  -0.30685581   0.88710639    1.7268846    0.1529893   0.15555021   0.15617273 
 7192000   0.79191641   0.15348873  -0.30567777   0.88213745    1.7142426    0.1519106   0.15340242   0.15515317 
 7193000   0.80225651   0.15412653    -0.306717   0.89660759    1.7321705    0.1571376   0.14983022   0.15541178 
 7194000   0.80363419   0.15416174  -0.30540505   0.89998596    1.7357397   0.15319206   0.15560845   0.15368471 
 7195000   0.80459346    0.1533815  -0.30401731   0.90281254    1.7343363   0.15295431   0.15376429   0.15342589 
 7196000   0.80842605   0.15515102  -0.30616448   0.90641396    1.7475309   0.15511259   0.15464268   0.15569779 
 7197000   0.80172566   0.15588824  -0.30399569   0.89853267    1.7436462   0.15405962   0.15573835   0.15786675 
 7198000    0.8025566   0.15242149  -0.30749154   0.89628317    1.7226025   0.15123648   0.15554111   0.15048688 
 7199000   0.80001802   0.15286545  -0.30774294   0.89222408    1.7209503   0.15276333   0.15149983   0.15433319 
 7200000    0.7955016   0.15275731  -0.30175516   0.89143758    1.7195775   0.14856429   0.15423162   0.15547601 
 7201000   0.79420044   0.15207025  -0.30446238   0.88677872    1.7111939   0.15061642    0.1508144   0.15477991 
 7202000   0.80661752   0.15031776   -0.3076218   0.90224399    1.7171584   0.15076009   0.14791526   0.15227791 
 7203000   0.80713809   0.15314336  -0.30520232   0.90544429    1.7356771   0.15057936   0.15220482   0.15664588 
 7204000   0.80182186   0.15481048  -0.30536668   0.89730597    1.7365767   0.15426605   0.15308241   0.15708296 
 7205000   0.80249108   0.15257064  -0.30697237   0.89670407     1.723832   0.15360011   0.15271374   0.15139807 
 7206000   0.79758534    0.1499986  -0.30769769    0.8886205    1.7018047   0.15052968   0.14911591    0.1503502 
 7207000    0.7902742   0.15264612  -0.30563887   0.87971315    1.7072503   0.15160858   0.15125916   0.15507062 
 7208000    0.7974972   0.15102767   -0.3071934   0.88899258    1.7077556   0.15338356   0.15012603   0.14957341 
 7209000    0.7990933   0.15921231  -0.30256894   0.89601108    1.7591454   0.15778952   0.15835288   0.16149453 
 7210000   0.80213924   0.15497215  -0.30427578   0.89887292    1.7390201   0.15500555   0.15755891   0.15235199 
 7211000   0.80803903   0.15386925  -0.30685549   0.90514245    1.7393105   0.14900533   0.15786865   0.15473377 
 7212000   0.79725564   0.15422594  -0.30578536    0.8900383    1.7261401   0.15544442   0.15348062   0.15375279 
 7213000   0.80067987   0.15295087  -0.30550957   0.89545018    1.7246395   0.15432955   0.15409515   0.15042792 
 7214000   0.79793582   0.15434578   -0.3034288   0.89341508    1.7301665   0.15633175   0.15295315   0.15375244 
 7215000   0.80170007   0.15401426  -0.30746338    0.8950266    1.7299808   0.15701937    0.1542348   0.15078862 
 7216000   0.79876543   0.15353321  -0.30483855   0.89324969     1.725596    0.1521709   0.15376313   0.15466561 
 7217000   0.79662134   0.15165778  -0.30583838   0.88903388     1.711213    0.1491346   0.15276816    0.1530706 
 7218000   0.79735571   0.15257247  -0.30852283   0.88745093    1.7145888   0.15062114   0.15421136   0.15288492 
 7219000    0.8022556   0.15009318  -0.30693926   0.89638398    1.7100809   0.15048612   0.15139646   0.14839696 
 7220000   0.80839976   0.15388452  -0.30840982   0.90412919      1.73838   0.15657481   0.15777468   0.14730407 
 7221000   0.80205096   0.15736809  -0.30307437   0.89994192    1.7530782   0.16017167   0.15458891   0.15734369 
 7222000   0.79904535   0.15235925  -0.30600657   0.89250152    1.7184835   0.15605166   0.14880524   0.15222086 
 7223000   0.79767327   0.15255647  -0.30811815   0.88833192    1.7153831   0.15133631   0.15486658   0.15146654 
 7224000   0.79263147     0.153271  -0.30376268   0.88512508    1.7160499   0.14985308   0.15613127   0.15382866 
 7225000   0.80374487   0.15460726  -0.30584366   0.89971336    1.7378824   0.15317284    0.1543092   0.15633973 
 7226000    0.8024852   0.15530233  -0.30688839   0.89677922    1.7387164   0.15587169   0.15657601    0.1534593 
 7227000   0.80405519   0.15629351  -0.30451353   0.90150895    1.7488196   0.15722301   0.15533625   0.15632126 
 7228000   0.80148271   0.15364428  -0.30492088   0.89724307    1.7301915    0.1543746   0.15480224   0.15175599 
 7229000   0.80839712   0.15331282  -0.30734139   0.90519366    1.7363452    0.1575321   0.15056032   0.15184604 
 7230000   0.80188944   0.15451239  -0.30409859   0.89867543    1.7363301   0.15341215   0.15456715   0.15555787 
 7231000    0.8003225   0.15453642  -0.30618646   0.89423727    1.7320222   0.15475223   0.15605143    0.1528056 
 7232000   0.79926309   0.15326402  -0.30590003   0.89293467    1.7238216   0.15317152    0.1531327   0.15348784 
 7233000    0.7968042   0.15257906  -0.30597463   0.88917191    1.7163455    0.1503886    0.1577819   0.14956669 
 7234000   0.79824408   0.14904831  -0.31001073   0.88729552    1.6953279   0.15020433   0.14873051   0.14821008 
 7235000   0.79492139   0.15286507   -0.3049348   0.88738766    1.7161118   0.14831503   0.15344056   0.15683962 
 7236000   0.80439789   0.15840355  -0.30359421    0.9029423    1.7616921   0.15583127   0.15651907   0.16286031 
 7237000   0.80267596    0.1546549  -0.30467551   0.89927823    1.7377055   0.15105097   0.15256212   0.16035161 
 7238000   0.79891629    0.1543862  -0.30635173   0.89196278    1.7289334   0.15324767   0.15494283   0.15496811 
 7239000   0.79236123   0.15354153  -0.30659723   0.88188519    1.7142766   0.15444967   0.15441996   0.15175496 
 7240000   0.79218369   0.14885166  -0.30718673    0.8810294    1.6879957   0.15126683   0.14659846   0.14868971 
 7241000   0.80475271    0.1527901  -0.30696028   0.90010843    1.7284261   0.15290717   0.15160794   0.15385518 
 7242000   0.80646713   0.15448218  -0.30847944   0.90116077    1.7386517   0.15364741   0.15359334    0.1562058 
 7243000     0.802358   0.15390008   -0.3066717   0.89680512    1.7311403    0.1556561   0.15169061   0.15435353 
 7244000   0.80585957   0.15452507   -0.3079891   0.90073982    1.7384632   0.15471788     0.154929   0.15392833 
 7245000   0.80765405   0.15827048  -0.30640117   0.90501933    1.7630477   0.15835758    0.1554283   0.16102557 
 7246000   0.80612662   0.15912444  -0.30278437    0.9063451     1.769003   0.16238236   0.15627659   0.15871436 
 7247000   0.80065764   0.15641828  -0.30508662   0.89583979    1.7438269   0.15583096   0.15642716   0.15699672 
 7248000   0.79863776   0.15494623  -0.30317639   0.89472035     1.734727   0.15655153   0.15511393   0.15317322 
 7249000   0.79525723   0.15152563  -0.30624114   0.88658507    1.7080477   0.15094563    0.1509256   0.15270568 
 7250000   0.78577782   0.15244904  -0.30399482   0.87461297    1.7010817   0.15391246   0.15062631   0.15280835 
 7251000    0.7942784   0.15165621  -0.30678224    0.8845758    1.7067464   0.15074492   0.15507923   0.14914448 
 7252000   0.79661226   0.15238196  -0.30641165   0.88844699    1.7145521   0.15107505   0.15192573   0.15414511 
 7253000    0.7945947   0.15663085  -0.30166723   0.89016523    1.7393047   0.16220817   0.15354416   0.15414024 
 7254000    0.7998891   0.15298587  -0.30564579   0.89412786    1.7235069   0.15359298   0.15652056   0.14884407 
 7255000   0.80155205   0.15752087  -0.30527788   0.89699007    1.7509546   0.16104449   0.15745935   0.15405877 
 7256000   0.80739313   0.15697968  -0.30688816   0.90414099    1.7551716   0.15513485   0.15746797   0.15833622 
 7257000   0.80192328    0.1552144  -0.30385024   0.89897455     1.740435   0.15436336    0.1580979   0.15318193 
 7258000   0.80184277   0.15732743  -0.30344967   0.89925434    1.7521701   0.15752736   0.15892436   0.15553056 
 7259000   0.79982345   0.15434341  -0.30373985   0.89593533    1.7326739   0.15571221   0.15155092   0.15576708 
 7260000   0.79345103   0.15134679  -0.30665699   0.88346004    1.7039532   0.15035794   0.15098445   0.15269799 
 7261000   0.79492859   0.15525043  -0.30436854   0.88796472    1.7296205   0.14873516    0.1589664   0.15804973 
 7262000   0.79872033    0.1558894  -0.30540048   0.89262012      1.73774    0.1551537   0.15655878   0.15595571 
 7263000   0.80442372   0.15538471  -0.30700917   0.89956608    1.7419499   0.15726321    0.1551122   0.15377873 
 7264000    0.8050477   0.15370643  -0.30360471   0.90390646    1.7371918   0.15437205   0.15330908   0.15343817 
 7265000   0.80818418   0.15558099  -0.30504502   0.90717064    1.7506185   0.15438123    0.1578195   0.15454224 
 7266000   0.79964271   0.15360071  -0.30591394   0.89349015    1.7262024   0.15222286   0.15524593   0.15333332 
 7267000   0.79989295   0.15818081  -0.30233461   0.89744483     1.754987   0.15766783   0.15960448   0.15727012 
 7268000   0.79887668    0.1558245  -0.30427741    0.8939777    1.7387457    0.1554107   0.15589797   0.15616484 
 7269000   0.78712112   0.15542672  -0.30250711   0.87811553    1.7207271   0.15313578   0.15645983   0.15668455 
 7270000   0.79264709   0.15266084  -0.30630609    0.8826051    1.7102221   0.15587381   0.15356645   0.14854227 
 7271000    0.7975146   0.15432022  -0.30570673   0.89050536    1.7271183   0.15670224   0.15216382    0.1540946 
 7272000   0.79673255   0.15373306   -0.3048549   0.89018417    1.7236139   0.15294347   0.15642761    0.1518281 
 7273000   0.79748634   0.15297554  -0.30647399   0.88969572    1.7190187   0.15633832   0.14761618   0.15497213 
 7274000   0.79501805   0.15194059  -0.30972991   0.88273753    1.7064498   0.15266105    0.1520143   0.15114643 
 7275000   0.79477771   0.15293686  -0.30574764   0.88635931    1.7154726   0.15705189   0.15286483   0.14889386 
 7276000    0.8050411   0.15815049  -0.30514741   0.90235387    1.7597317   0.16005817   0.15620454   0.15818877 
 7277000    0.8014864   0.15742915  -0.30368298    0.8984865    1.7519538   0.15355084   0.16185211   0.15688451 
 7278000   0.80203237   0.15323684  -0.30796211   0.89502629    1.7257659   0.15172498   0.15328379   0.15470176 
 7279000   0.79496457   0.15360882  -0.30390417   0.88848306    1.7212393   0.15657449   0.15180352   0.15244845 
 7280000   0.80310878   0.15547095  -0.30589223    0.8987107     1.741562   0.15888077   0.15323301   0.15429908 
 7281000   0.79212186   0.15078914  -0.30451254   0.88361084    1.7010808   0.15146422    0.1523268   0.14857641 
 7282000   0.78984369   0.15163039  -0.30718834   0.87751796    1.6995485   0.15234833   0.15484638   0.14769645 
 7283000   0.79776021   0.15593576  -0.30325687   0.89332361    1.7386948   0.15731123   0.15547387   0.15502219 
 7284000    0.8016651   0.15215451  -0.30761936   0.89481817    1.7196902   0.15039271   0.15236107   0.15370975 
 7285000   0.80479705   0.15539473  -0.30621855   0.90091666    1.7433548   0.15597163   0.15319115   0.15702141 
 7286000   0.81110586   0.15572771  -0.30599784   0.91060012    1.7548434   0.15677284   0.15460245   0.15580785 
 7287000   0.80724341   0.15730814  -0.30434262   0.90646195    1.7592732   0.15691925   0.15643069   0.15857449 
 7288000   0.79958916   0.15629409  -0.30443062   0.89489315    1.7422069   0.15749818   0.15623331   0.15515078 
 7289000   0.80018362   0.15243727  -0.30551901    0.8946964    1.7211013   0.15067872   0.15224032   0.15439278 
 7290000   0.79844144   0.15245865   -0.3050044   0.89259787    1.7191187   0.15169353   0.15598284   0.14969957 
 7291000   0.79568308   0.15216174  -0.30505338   0.88841156    1.7133228     0.152631   0.15217326   0.15168097 
 7292000     0.793595    0.1549213  -0.30567701   0.88465598    1.7245275   0.15590948    0.1550204   0.15383404 
 7293000   0.79786196   0.15570654   -0.3027929    0.8939402    1.7380687   0.15241514   0.15684483   0.15785966 
 7294000   0.80084158    0.1523383  -0.30588796   0.89531435    1.7211827   0.14885454   0.15506856   0.15309181 
 7295000    0.8005478   0.15321522  -0.30379958   0.89696208    1.7275845   0.15090167   0.15200981   0.15673417 
 7296000   0.80797613   0.15662106  -0.30439762   0.90750598    1.7565924   0.15556714   0.15779575    0.1565003 
 7297000   0.80478434   0.15325861  -0.30705167   0.90006448    1.7309221   0.15469769   0.15122483    0.1538533 
 7298000   0.79938051   0.15392855  -0.30599355   0.89301726    1.7275068   0.15529753   0.15159177   0.15489636 
 7299000   0.79814216   0.15291738  -0.30589897   0.89125441    1.7202621    0.1551073   0.15261234   0.15103251 
 7300000   0.79637953    0.1529066  -0.30338577    0.8911238    1.7200731   0.14815957    0.1562852   0.15427502 
 7301000    0.7930103   0.15303834  -0.30440759   0.88504838    1.7147118   0.15285024    0.1493199   0.15694487 
 7302000   0.78817269   0.15176958  -0.30618919   0.87601074    1.6987959   0.15072346   0.15224864   0.15233665 
 7303000    0.7958429   0.15171144   -0.3059287   0.88777596    1.7102459    0.1509533    0.1485524   0.15562863 
 7304000   0.79823059   0.15219463  -0.30672244   0.89056359    1.7156531   0.15303664   0.15055587   0.15299138 
 7305000   0.79664102   0.15400589  -0.30687042   0.88803136    1.7229402   0.16038932   0.15135381   0.15027454 
 7306000   0.80006958   0.15622909   -0.3047595   0.89528485    1.7422463   0.15557364   0.15501981   0.15809381 
 7307000   0.80848808   0.15418735  -0.30863064   0.90404084    1.7399334   0.15395059   0.15588166    0.1527298 
 7308000   0.80120805   0.15393145  -0.30623179    0.8955202    1.7300255     0.152678   0.15827714   0.15083921 
 7309000   0.79883187   0.15162284  -0.30815144   0.89003644    1.7120261   0.15284892   0.15239655   0.14962306 
 7310000   0.79930757   0.15394199  -0.30858696   0.89031445    1.7248769   0.15513465   0.15302076   0.15367058 
 7311000    0.7962642   0.15235504  -0.30659183   0.88774475    1.7137039   0.14779703   0.15296744   0.15630066 
 7312000   0.79406625   0.15329544  -0.30433001   0.88670981    1.7177671   0.15538246   0.15262736   0.15187649 
 7313000   0.79592755    0.1538479  -0.30675285   0.88707879    1.7211311   0.15780839    0.1520085   0.15172682 
 7314000   0.80057705   0.15431072  -0.30612226   0.89468327    1.7312447   0.15228724   0.15602274   0.15462219 
 7315000   0.80196286   0.15672764  -0.30548872   0.89739542    1.7470596    0.1611372   0.15745301    0.1515927 
 7316000   0.80862844   0.15159233  -0.30692277   0.90595925    1.7277835    0.1528568   0.15413413   0.14778606 
 7317000   0.80037117   0.15332933  -0.30568237   0.89481436    1.7260554   0.15013164   0.15332061   0.15653575 
 7318000   0.80323654    0.1515951    -0.307216   0.89757856    1.7194178    0.1508778   0.15056738   0.15334011 
 7319000   0.80704415    0.1542657  -0.30873749   0.90176822    1.7380856    0.1554206   0.15357863   0.15379789 
 7320000   0.80004517   0.15679225  -0.30432987   0.89567788    1.7456924   0.15613924   0.15567542   0.15856211 
 7321000   0.80022487   0.15161181   -0.3087474   0.89152989    1.7134597   0.15057336   0.15048637   0.15377571 
 7322000   0.80296477   0.15484627  -0.30605073    0.8983362     1.737801   0.15171288   0.15612986   0.15669607 
 7323000   0.80440845   0.15484064  -0.30671104   0.89984131    1.7392755   0.15351171   0.15840992   0.15260029 
 7324000   0.81086546   0.15688557   -0.3071932   0.90904418    1.7595646   0.15793958   0.15702308   0.15569406 
 7325000   0.80374747   0.15338981   -0.3081313   0.89742963    1.7289985   0.15464451   0.15380021   0.15172471 
 7326000   0.79717074   0.15129813  -0.30625138   0.88944495    1.7096742   0.15115187   0.15283151   0.14991101 
 7327000   0.79575605   0.15182232  -0.30455811   0.88901628    1.7120874   0.15106075   0.15269126   0.15171496 
 7328000   0.80062034   0.15193502  -0.30901672   0.89185374    1.7155358   0.15033724   0.14971524   0.15575258 
 7329000   0.79752289   0.15227559  -0.30710046   0.88912405    1.7146524   0.15098291   0.15459114   0.15125271 
 7330000   0.80323348   0.15262779  -0.30666655   0.89812343    1.7255612   0.15784975    0.1501646   0.14986903 
 7331000   0.80864636   0.15734813  -0.30287315   0.91003575    1.7630638   0.15736288   0.15527575   0.15940577 
 7332000   0.80533612    0.1554015  -0.30695559   0.90098819     1.743463   0.15927233    0.1505339   0.15639825 
 7333000   0.80179034   0.15604433  -0.30287352   0.89975186    1.7457116   0.15482263   0.15330984   0.16000052 
 7334000   0.80754911   0.15603049  -0.30419206   0.90707104    1.7529558   0.15406017   0.15978541   0.15424589 
 7335000   0.79943668   0.15502714  -0.30729752   0.89179754    1.7322429   0.15581873   0.15432164   0.15494107 
 7336000   0.79315451   0.15171417  -0.30469402   0.88497825     1.707463   0.15053508   0.14996385   0.15464359 
 7337000   0.79655849   0.15403624  -0.30621744   0.88856055    1.7236339   0.15536813   0.14955183   0.15718874 
 7338000   0.79713452   0.15371897  -0.30992756   0.88571443    1.7190678   0.15382558   0.15309697   0.15423435 
 7339000   0.79641824   0.15112661  -0.30633502   0.88823261    1.7075321   0.14804682   0.15301158   0.15232143 
 7340000   0.80783746   0.15704045  -0.30439154   0.90730405    1.7586641   0.15929573   0.15462619   0.15719942 
 7341000    0.8100648   0.15558801  -0.30563844   0.90939801    1.7528839   0.15411719   0.15834319   0.15430363 
 7342000   0.79920575   0.15340231  -0.30549493   0.89325375    1.7248904   0.15318476    0.1556644   0.15135778 
 7343000   0.79642504   0.15065862  -0.30723646   0.88734137    1.7041037   0.15119455   0.14802682   0.15275449 
 7344000   0.79808531   0.15198548  -0.30903651   0.88803159    1.7119872   0.15568565   0.14835421   0.15191658 
 7345000   0.79805583   0.15496281  -0.30598145   0.89104244     1.731139   0.15408235   0.15356822   0.15723787 
 7346000   0.79567639   0.15672406  -0.30145811   0.89199679    1.7416416   0.15767812   0.15667794   0.15581613 
 7347000    0.7996666   0.15497914  -0.30515064   0.89428929    1.7344744   0.15562933   0.15256385   0.15674423 
 7348000   0.80524655   0.15311038  -0.30673581   0.90107362    1.7311276   0.15056088   0.15544595   0.15332432 
 7349000   0.79959471   0.15213989  -0.30507545   0.89425664    1.7190494   0.15126393   0.15312013   0.15203562 
 7350000   0.80805694   0.15596899  -0.30451847   0.90750633    1.7530577   0.15788933   0.15495922   0.15505843 
 7351000   0.80398309   0.15420622  -0.30599889   0.89991545    1.7359103   0.15438089   0.15168567   0.15655211 
 7352000   0.80094446   0.15265774   -0.3058981   0.89545853    1.7230586   0.15199424   0.15391985   0.15205912 
 7353000   0.80364416    0.1562566  -0.30579445   0.89961151    1.7467221   0.15713286    0.1566732   0.15496374 
 7354000    0.8020939   0.15256848  -0.30740487   0.89567582     1.722792   0.15292377   0.15565648   0.14912517 
 7355000   0.79601447   0.15166318  -0.30779368   0.88616831    1.7083767   0.15513527   0.14916776   0.15068651 
 7356000   0.79991067   0.15190749  -0.30862735   0.89117866    1.7147115   0.15222645   0.15263771   0.15085832 
 7357000   0.79866693   0.14983677  -0.31135389    0.8865866    1.6988935   0.15580649   0.14367154   0.15003228 
 7358000   0.79871502   0.15165811  -0.30578243    0.8922302    1.7144111   0.15289779   0.15043312   0.15164342 
 7359000   0.79686544   0.15405108  -0.30406113   0.89117726    1.7263311   0.15107975   0.15500552   0.15606796 
 7360000   0.80455867   0.15697055  -0.30405744   0.90272022    1.7537013   0.15702997   0.15833083   0.15555087 
 7361000   0.80345009   0.15427103  -0.30471453   0.90040035    1.7367466   0.15437416   0.15487901   0.15355992 
 7362000    0.8064743    0.1546156  -0.30995365   0.89969732    1.7379115   0.15612297   0.15352956   0.15419428 
 7363000    0.8017586   0.15097588  -0.30802325   0.89455451    1.7130368   0.15030955   0.15305998    0.1495581 
 7364000   0.79922042   0.15571894  -0.30451629    0.8942544    1.7384502    0.1556884   0.15471454    0.1567539 
 7365000   0.80149308    0.1538392  -0.30862709   0.89355242    1.7275576   0.15252891   0.15092772   0.15806097 
 7366000   0.79818867   0.15252897  -0.30498023    0.8922429    1.7191449   0.15295825   0.15382272   0.15080594 
 7367000   0.78835541   0.15180459  -0.30484794   0.87762605     1.700601   0.14962722   0.15254842   0.15323813 
 7368000   0.79096561   0.15219033  -0.30612584   0.88026325    1.7053294   0.14926573   0.15401747   0.15328778 
 7369000   0.79799603   0.15318976  -0.30655461   0.89037959    1.7208639   0.15110492   0.15327857   0.15518579 
 7370000   0.79862617   0.15293249  -0.30768784   0.89019152    1.7192811   0.15680751   0.15350304   0.14848692 
 7371000   0.80093362   0.15218645  -0.30736459   0.89397577    1.7190209   0.15420172   0.15115407   0.15120357 
 7372000   0.80212831   0.15541313   -0.3048647   0.89826761    1.7408055   0.15520791   0.15217276   0.15885873 
 7373000   0.80332047   0.15260257  -0.30958242   0.89533804    1.7226391   0.15099211   0.15264947   0.15416614 
 7374000   0.79780126   0.15496864  -0.30533521   0.89130685     1.731435   0.15975476   0.15247776   0.15267341 
 7375000    0.7997688   0.15519713  -0.30292169   0.89667153    1.7380384     0.154615   0.15413029   0.15684611 
 7376000   0.80033569   0.15656357  -0.30514391   0.89529959    1.7440743   0.15578824   0.15612435   0.15777813 
 7377000   0.80172919   0.15682678  -0.30493948   0.89759418    1.7477958   0.15939541   0.15823484   0.15285008 
 7378000   0.79871011   0.15231714  -0.30520673   0.89279853    1.7185522   0.14958981   0.15521995   0.15214166 
 7379000   0.79682562   0.15511458  -0.30452432   0.89065434    1.7315737   0.15317387   0.15843043   0.15373944 
 7380000   0.79338438   0.15171247  -0.30602326   0.88399381    1.7064694   0.15184064    0.1505413   0.15275548 
 7381000   0.80046061   0.15468218  -0.30587897   0.89475191    1.7333271   0.15361976   0.15626851   0.15415825 
 7382000   0.79867276   0.15537742  -0.30515201   0.89279722    1.7351415   0.15571228   0.15644725   0.15397274 
 7383000   0.80087161   0.15558531  -0.30445453   0.89679281    1.7402641   0.15553255   0.15656825   0.15465513 
 7384000   0.80040835   0.15719496  -0.30607578   0.89447672    1.7466744   0.16134715   0.15384061   0.15639711 
 7385000   0.80511591   0.15152704  -0.30643468    0.9011788    1.7226491   0.15160435   0.14787405   0.15510271 
 7386000   0.80142372   0.15184274  -0.30902877   0.89304671    1.7162285   0.15016872   0.14974124   0.15561827 
 7387000   0.79329892   0.15427006  -0.30454981   0.88533908      1.72168   0.15598296   0.15624507   0.15058215 
 7388000    0.7994869   0.15353701   -0.3076725   0.89149789    1.7238648   0.15484308   0.15608032   0.14968763 
 7389000   0.79576547   0.15163386    -0.307472   0.88611653    1.7081659   0.14954533   0.15236281   0.15299346 
 7390000   0.78733198    0.1527213  -0.30459201   0.87634691    1.7042916   0.15191175   0.15226935   0.15398281 
 7391000   0.79468042   0.15097529  -0.30969422   0.88226681    1.7007459   0.14971588   0.15159027   0.15161972 
 7392000    0.8018189   0.15022062  -0.31043805   0.89223016     1.706618   0.15260313   0.14901203    0.1490467 
 7393000   0.79924915   0.15197958  -0.30670556   0.89210822    1.7160318   0.14958448   0.15106234   0.15529191 
 7394000   0.80047532    0.1559799  -0.30540856   0.89524438    1.7408549   0.15547588   0.15773305   0.15473078 
 7395000   0.80428116   0.15724633  -0.30401414   0.90234728    1.7548234   0.15391553   0.15731693   0.16050655 
 7396000   0.80784638   0.15883216  -0.30240618    0.9093028    1.7703762   0.15755194   0.15692038   0.16202416 
 7397000   0.80142205   0.15346607  -0.30907058   0.89300239    1.7249847   0.15713771   0.15360235   0.14965816 
 7398000   0.79631841   0.15190606  -0.30730979   0.88710811    1.7106331   0.15223882   0.15089351   0.15258584 
 7399000   0.79630326   0.15229254  -0.30701205   0.88738311    1.7130034   0.15148776   0.15214298   0.15324689 
 7400000   0.79576718   0.15457608  -0.30559885   0.88799224    1.7259922   0.15297043   0.15502249   0.15573531 
 7401000   0.80774754   0.15429378  -0.30399728   0.90756344     1.744033   0.15272443   0.15765541    0.1525015 
 7402000   0.80712897    0.1583444  -0.30220949   0.90842343    1.7668525   0.15545591   0.16074962   0.15882766 
 7403000   0.80446652   0.15307818  -0.30552066   0.90111878    1.7309982   0.15457573   0.15163646   0.15302234 
 7404000   0.79981057   0.15571654  -0.30693558   0.89272029     1.736903   0.15635589   0.15411252   0.15668121 
 7405000   0.79645662   0.15612055   -0.3037604   0.89086479    1.7372377   0.15556361   0.15557286   0.15722516 
 7406000   0.78977177   0.15010968   -0.3077678   0.87683061     1.690617   0.15333705   0.15047832   0.14651366 
 7407000   0.79199968   0.15368439   -0.3076745   0.88026562    1.7134315   0.15183609   0.15373566   0.15548141 
 7408000   0.79697864   0.15594073  -0.30783562   0.88757257    1.7329707   0.15511515   0.15691136   0.15579569 
 7409000   0.79762732   0.15173645  -0.30617012   0.89021104    1.7128166   0.15045275   0.15315258   0.15160403 
 7410000   0.79293372   0.15283517   -0.3040973   0.88524381    1.7138058    0.1522921   0.15412441   0.15208899 
 7411000   0.79083852   0.15268375  -0.30464344   0.88155502    1.7092961   0.15158483   0.15171209   0.15475432 
 7412000   0.79959589    0.1536306  -0.30456389   0.89476997    1.7276443   0.15543036   0.15482602   0.15063542 
 7413000   0.80152945   0.15777278  -0.30270745   0.89952662    1.7548568   0.15558112   0.15801867   0.15971853 
 7414000   0.80380587   0.15468434  -0.30680081   0.89884771    1.7374346    0.1581069   0.14963269   0.15631344 
 7415000   0.80408361   0.15579902  -0.30569459   0.90037052    1.7450004   0.15626308    0.1550622   0.15607178 
 7416000   0.79148587   0.15137294   -0.3066872   0.88048225    1.7011171   0.15178995     0.152155   0.15017387 
 7417000   0.79344154    0.1534243  -0.30637448   0.88372832    1.7154842   0.15117658   0.15412147   0.15497484 
 7418000   0.79924421   0.15426356  -0.30396995   0.89483642    1.7311421   0.15261466    0.1555805   0.15459551 
 7419000   0.80297871   0.15528946   -0.3052723   0.89913554     1.741003   0.15660789   0.15593465   0.15332585 
 7420000   0.80536909   0.15465567  -0.30343233    0.9045609    1.7429924   0.15332461   0.15294164   0.15770075 
 7421000   0.79934184   0.15703685  -0.30219493   0.89675787    1.7480984   0.15751253   0.15435308   0.15924495 
 7422000   0.80146401   0.15199262  -0.30872622   0.89340969     1.717404   0.15451836   0.14974574   0.15171375 
 7423000   0.79747679   0.15071469  -0.30569652   0.89045886    1.7075252   0.15010688   0.15218516   0.14985203 
 7424000   0.79497555   0.15625379  -0.30230457   0.89009913    1.7371944   0.15812265   0.15429484   0.15634388 
 7425000   0.79911548   0.14966367  -0.30899815   0.88961513    1.7009836   0.14577529   0.14947694    0.1537388 
 7426000   0.79709052   0.15201244  -0.30683027   0.88874572    1.7128475   0.15140689   0.15443282   0.15019759 
 7427000   0.80430633   0.15443389   -0.3038313   0.90256787     1.739797   0.15633068   0.15198956   0.15498143 
 7428000   0.80230898   0.15717747  -0.30538879    0.8980145    1.7501173   0.15598905   0.15881019   0.15673317 
 7429000   0.80414777   0.15648656  -0.30400061   0.90216073    1.7505179   0.15852996   0.15773134   0.15319837 
 7430000   0.80199972   0.15686514  -0.30326221   0.89967723    1.7500868   0.15732191   0.15528484   0.15798866 
 7431000   0.80173101   0.15288494  -0.30729587    0.8952405    1.7240724   0.15504602   0.15200024   0.15160856 
 7432000   0.80144913   0.15307302  -0.30865641   0.89345717    1.7233086   0.15060646   0.15315654   0.15545605 
 7433000   0.79107134   0.15417178  -0.30242569   0.88412199    1.7199302   0.15273772   0.15415987   0.15561776 
 7434000    0.7898989   0.15321822  -0.30639498   0.87839413    1.7090328   0.15263386   0.15363839   0.15338241 
 7435000   0.80057798   0.15536824  -0.30579254   0.89501438    1.7373089   0.15763714   0.15379834   0.15466922 
 7436000   0.80457566   0.15533094  -0.30905651   0.89774663    1.7398389   0.15256933   0.15309912   0.16032435 
 7437000   0.80181084   0.15475972  -0.30786663   0.89478949    1.7337851   0.15313813   0.16028332   0.15085772 
 7438000   0.80867385    0.1546296  -0.30527628   0.90767384     1.745964    0.1528585   0.15583613   0.15519417 
 7439000   0.79993613   0.15355453  -0.30600964   0.89383456    1.7262964   0.15095176   0.15581007   0.15390177 
 7440000   0.79917751   0.15347072  -0.30603309   0.89267324    1.7246808   0.15258175   0.15360796   0.15422246 
 7441000   0.79738081   0.15451419  -0.30667318   0.88933823    1.7270027   0.15117518   0.15924936   0.15311802 
 7442000   0.79747084   0.15493319  -0.30523348   0.89091296    1.7308489    0.1563795   0.15368106   0.15473901 
 7443000   0.79543276   0.15355003  -0.30603899   0.88705049     1.719488   0.15532807   0.15136293   0.15395908 
 7444000    0.7945581   0.15196358  -0.30363705   0.88814051    1.7119774   0.15177238   0.14764653   0.15647182 
 7445000   0.79898794   0.15502344  -0.30472616   0.89369583    1.7341211   0.15297733   0.15587001   0.15622297 
 7446000   0.79644529   0.15408424  -0.30486356   0.88974465    1.7250783   0.15625316   0.15413325   0.15186632 
 7447000   0.79717139   0.15217313  -0.30305017   0.89264712      1.71762   0.15017972   0.15048174   0.15585793 
 7448000   0.80261852   0.15432182  -0.30620239   0.89766519    1.7342868   0.15393059   0.15253214   0.15650274 
 7449000   0.80214309   0.15393224  -0.30580294   0.89735154    1.7318611   0.15445018   0.15501164    0.1523349 
 7450000   0.79562944   0.15340239   -0.3022471   0.89113739    1.7227745   0.15280304   0.15556241   0.15184172 
 7451000   0.80115807   0.15470286   -0.3063077   0.89536932    1.7340566   0.15644329   0.15280872   0.15485656 
 7452000    0.8060002   0.15749552  -0.30383798   0.90510186    1.7589289   0.15474658   0.15648237    0.1612576 
 7453000   0.80371944   0.15348041  -0.30533257   0.90018631    1.7322463   0.15417491   0.15611133   0.15015499 
 7454000   0.80321568   0.15361394  -0.30702168   0.89774159    1.7305256   0.15064277   0.15318528   0.15701378 
 7455000   0.80292738   0.15806203  -0.30285869   0.90147215    1.7583704   0.16175081   0.15376273   0.15867255 
 7456000   0.80175136   0.15950388   -0.3018504   0.90071652    1.7654315   0.16071885   0.15750953   0.16028326 
 7457000   0.79960968   0.15375777  -0.30422764   0.89512691    1.7286906   0.15384131   0.15165736   0.15577466 
 7458000   0.79588787    0.1547976  -0.30456292   0.88920919    1.7284101   0.15540208   0.15632091   0.15266979 
 7459000    0.8020134   0.15012772  -0.30982406   0.89313589    1.7070201   0.15207544   0.15087136   0.14743635 
 7460000   0.80535585   0.15474292  -0.30520316   0.90277022    1.7416747   0.15240504   0.15346202   0.15836169 
 7461000   0.79905292    0.1542221  -0.30277491   0.89574455    1.7318255   0.15304988   0.15601391   0.15360251 
 7462000   0.79702461   0.15228818  -0.30555161   0.88992553    1.7155222   0.15144506   0.15220586   0.15321362 
 7463000   0.81026425   0.15924161  -0.30489928   0.91043633    1.7737295   0.16577069   0.15439902   0.15755512 
 7464000    0.8015364   0.15592474  -0.30610746   0.89613702    1.7414485   0.15520624     0.155416     0.157152 
 7465000   0.80661162    0.1581236  -0.30669545   0.90316149    1.7603936   0.15705507   0.15917098   0.15814474 
 7466000   0.81014519   0.15753935  -0.30537008   0.90978694    1.7638516   0.15529535   0.15987317   0.15744952 
 7467000    0.8022851   0.15430882  -0.30537103   0.89799645    1.7345475   0.15459841   0.15567912   0.15264892 
 7468000   0.79950129   0.15499442  -0.30544747    0.8937445    1.7340124   0.15376071   0.15438694   0.15683561 
 7469000   0.79668822    0.1532476  -0.30415683   0.89081575    1.7216137   0.15338876    0.1537387   0.15261535 
 7470000   0.79944818   0.15487274  -0.30549698   0.89361533    1.7332236   0.15909454   0.15348927   0.15203442 
 7471000   0.79366962   0.15729831  -0.30361717   0.88682774    1.7395857   0.15730333   0.15589215   0.15869946 
 7472000   0.79633988   0.15245247  -0.30591021   0.88853989    1.7150272   0.15198936   0.15112662   0.15424143 
 7473000   0.79241194    0.1535895  -0.30382493   0.88473355     1.717385   0.15136586   0.15771041   0.15169222 
 7474000   0.80240958   0.15239949  -0.30806695   0.89548725    1.7216873   0.15410518    0.1524874   0.15060589 
 7475000   0.80377964   0.15338178  -0.30352482   0.90208436    1.7336097   0.15286384   0.15461705   0.15266446 
 7476000   0.80353212   0.15504262  -0.30369745   0.90154047    1.7420697    0.1560719   0.15558446   0.15347148 
 7477000   0.80178781   0.15269219  -0.30619866   0.89642293    1.7242098   0.15065698    0.1527513   0.15466829 
 7478000    0.8038042   0.15189494  -0.30774847   0.89789754    1.7213623    0.1556708   0.15124231   0.14877172 
 7479000   0.79929019   0.15582568  -0.30528589   0.89358945    1.7383639   0.15834295   0.15397861   0.15515549 
 7480000   0.78764273   0.15268224  -0.30399847   0.87740655    1.7051395   0.15217801   0.15067271     0.155196 
 7481000   0.80184976   0.15330924  -0.30755812   0.89515638    1.7262885   0.15226027    0.1536419   0.15402556 
 7482000   0.79572124   0.14817756  -0.30689595   0.88662622     1.689938   0.14529431   0.14885251   0.15038586 
 7483000   0.79868264   0.15216277  -0.30789741   0.89006665    1.7149834   0.14966669   0.15280763   0.15401399 
 7484000   0.79361116   0.15283613  -0.30473648   0.88562074     1.714188   0.15053281   0.15478892   0.15318666 
 7485000    0.7980714   0.15623511  -0.30448813   0.89255912    1.7395532   0.16029147   0.15371025   0.15470362 
 7486000   0.80038324   0.15037753  -0.30648999   0.89402484    1.7092633   0.14863477   0.15055923    0.1519386 
 7487000   0.80071332   0.15415815  -0.30386302    0.8971469    1.7328812   0.15189714    0.1550411   0.15553621 
 7488000   0.80694343   0.15590276  -0.30416439   0.90619023    1.7513825   0.15666812   0.15381256   0.15722762 
 7489000   0.80786954   0.15606648  -0.30400225   0.90774146    1.7538213   0.15697936   0.15584253   0.15537755 
 7490000   0.79860838   0.15605956  -0.30703898    0.8908137     1.736856   0.15802358   0.15289006   0.15726504 
 7491000   0.79512314   0.15246451  -0.30663529   0.88598979    1.7125424   0.15367399   0.15191281   0.15180674 
 7492000   0.78390028   0.15271501  -0.30275217   0.87303947    1.7009501   0.15079009    0.1578591   0.14949584 
 7493000   0.79532442   0.15435721  -0.30373883   0.88918815    1.7260016   0.15179147   0.15469942   0.15658074 
 7494000   0.79722468   0.15718174  -0.30297106   0.89280616    1.7449321   0.15823342   0.15755227   0.15575952 
 7495000   0.80321884    0.1534349  -0.30355612   0.90121191    1.7330253   0.15496269    0.1538034   0.15153862 
 7496000   0.80782216   0.15783632  -0.30377854   0.90789411    1.7635688   0.16031606    0.1561265    0.1570664 
 7497000   0.80224601   0.15166684  -0.30586238   0.89744647    1.7196747   0.15042571   0.14986737   0.15470745 
 7498000   0.79861703   0.15170548  -0.30742316   0.89044248    1.7128801   0.15428735   0.15035424   0.15047485 
 7499000   0.79130793     0.154018  -0.30793483   0.87896772    1.7139422   0.15546353   0.15140004   0.15519043 
 7500000   0.80508751   0.15623376  -0.30520575   0.90236514    1.7493518   0.15676173   0.15765029   0.15428925 
 7501000   0.80384016   0.15562246  -0.30404203   0.90165792    1.7453306   0.15546873   0.15554531   0.15585334 
 7502000   0.80032479   0.15360994  -0.30333262   0.89709454    1.7298568    0.1559067   0.15424305   0.15068006 
 7503000   0.79893553   0.15396988  -0.30418549   0.89415788    1.7288715   0.15056133   0.15558769   0.15576061 
 7504000   0.79877392   0.15432769  -0.30519593   0.89290504    1.7295584   0.15425611   0.15483247   0.15389449 
 7505000   0.79664394   0.14922395  -0.30777338   0.88713279    1.6961174    0.1468111   0.15108669   0.14977406 
 7506000   0.79710884   0.15265378  -0.30530481   0.89029868    1.7178773   0.15095673   0.15144763   0.15555697 
 7507000   0.80127426   0.15438319  -0.30606717   0.89578413    1.7327384   0.15646913   0.15319844     0.153482 
 7508000   0.81191519   0.15767594  -0.30799868   0.90981322    1.7646184   0.15793404   0.16034058   0.15475319 
 7509000    0.8096367   0.15625611  -0.30395683    0.9104375    1.7575454   0.15272308   0.15779759   0.15824767 
 7510000   0.80286014   0.15367865  -0.30556152   0.89866848    1.7318033   0.15086029   0.15324485   0.15693082 
 7511000   0.79592483   0.15116472  -0.30579846   0.88802909    1.7075351   0.15072513   0.15180044   0.15096859 
 7512000   0.79404889   0.15140459  -0.30694233   0.88407145    1.7048779    0.1539925   0.14967008   0.15055118 
 7513000   0.80128978   0.15362626  -0.30516464   0.89670993    1.7295606   0.15690816   0.15390167   0.15006894 
 7514000    0.8059186   0.15153117  -0.30869462   0.90012283    1.7216155   0.15494671   0.14907224   0.15057457 
 7515000   0.80241207   0.15990581  -0.30450177   0.89905615    1.7659501   0.16099671   0.15585851   0.16286222 
 7516000   0.80167484   0.15551335  -0.30468616   0.89776597    1.7408471    0.1523208   0.15647521   0.15774404 
 7517000   0.80283376   0.15327286  -0.30549761   0.89869282    1.7296277    0.1521242   0.15278872   0.15490565 
 7518000   0.79834255   0.15287191   -0.3069642   0.89048974     1.719251   0.15232986   0.15095982   0.15532607 
 7519000   0.79200986   0.15291642  -0.30491997   0.88303542    1.7120379   0.15318963   0.15198956   0.15357006 
 7520000   0.79113614   0.15306755  -0.30416055   0.88248432    1.7123061   0.15182778   0.15547495   0.15189992 
 7521000   0.80375247   0.15397551  -0.30520814   0.90036029    1.7351044   0.15497993   0.15515152   0.15179507 
 7522000   0.79957778   0.15456278   -0.3071854    0.8921213    1.7300492   0.15221521   0.15484777   0.15662537 
 7523000   0.80049599    0.1561326  -0.30439123   0.89629271     1.742731   0.15470135    0.1557236   0.15797284 
 7524000   0.80082266   0.15750716  -0.30312711   0.89804681     1.751937   0.15528618   0.16163211   0.15560319 
 7525000   0.80404812   0.15413687  -0.30493709   0.90107478    1.7366937   0.15142663   0.15369485   0.15728914 
 7526000   0.80691434   0.15592932  -0.30576069   0.90455031    1.7498866   0.15412123   0.15877865   0.15488808 
 7527000   0.80760638   0.15794304  -0.30358724   0.90776175     1.764015   0.15709602   0.15799413   0.15873897 
 7528000   0.79704639   0.15552863  -0.30345166   0.89205815    1.7352221   0.15606974   0.15655378   0.15396236 
 7529000   0.80205661     0.152111  -0.30873637    0.8942884    1.7189245   0.15022076   0.15340005   0.15271217 
 7530000   0.79974041   0.15648739  -0.30442298   0.89512765    1.7434894   0.16014625    0.1516504   0.15766552 
 7531000   0.79798917   0.15255193  -0.30288329   0.89404062    1.7210671   0.15369952   0.15027919   0.15367708 
 7532000   0.80214026   0.15309831  -0.30592559   0.89722464    1.7272132   0.15071247   0.15311592   0.15546654 
 7533000   0.79746051   0.15061659  -0.30760013   0.88853083    1.7050653    0.1511606   0.15195286    0.1487363 
 7534000   0.79637659   0.15022187  -0.30739094   0.88711422    1.7015088   0.15114635   0.14667901   0.15284025 
 7535000   0.79513378   0.15243713  -0.30761822   0.88502282     1.711427   0.15186074    0.1524829   0.15296775 
 7536000   0.79593333   0.14964924  -0.30772433   0.88611597    1.6974062   0.14898264   0.15324368   0.14672138 
 7537000   0.79790301   0.15465744  -0.30492456   0.89187011    1.7303112    0.1569246   0.15375682   0.15329092 
 7538000   0.80169621   0.15450586  -0.30557286   0.89691132    1.7345306   0.15397963   0.15606302   0.15347493 
 7539000   0.79777903   0.15491634  -0.30221883   0.89438988    1.7342345    0.1538008   0.15716974   0.15377846 
 7540000   0.80806867   0.15507747  -0.30691653   0.90512587     1.745844   0.15594502   0.15476234   0.15452504 
 7541000   0.81090105   0.15564098  -0.30478964   0.91150112    1.7552742   0.15950836    0.1550179   0.15239668 
 7542000   0.79920984   0.15416894  -0.30709755   0.89165727      1.72745   0.15463571   0.15337073   0.15450036 
 7543000   0.79918182   0.15426289  -0.30693916   0.89177363    1.7280757   0.15326342   0.15345478   0.15607048 
 7544000   0.79500628     0.155179  -0.30395095   0.88849885    1.7297674    0.1518156   0.15627476   0.15744665 
 7545000   0.79289103   0.15125729  -0.30557471   0.88370237    1.7037103   0.14986227   0.15398285   0.14992676 
 7546000     0.795853   0.15356777  -0.30560537   0.88811444    1.7206481   0.15531218    0.1516019   0.15378923 
 7547000   0.80115211   0.15306563  -0.30643532   0.89523276    1.7250442    0.1545305    0.1516099   0.15305649 
 7548000   0.80623381   0.15561862  -0.30338121   0.90590903    1.7495609   0.15971195   0.15651837   0.15062554 
 7549000   0.80253894   0.15548026  -0.30435093    0.8993973    1.7422991   0.15287831   0.15918488   0.15437759 
 7550000   0.80864221   0.15581619  -0.30615697   0.90674569    1.7514687   0.15478502   0.15913106    0.1535325 
 7551000   0.80137568    0.1533548  -0.30558649   0.89641693     1.727796   0.15451758   0.15219025   0.15335656 
 7552000   0.79932264   0.15329661  -0.30383279   0.89509121    1.7261549   0.15530482    0.1506882   0.15389682 
 7553000   0.79886462   0.15534942  -0.30371014   0.89452687    1.7367194    0.1556758   0.15469036   0.15568211 
 7554000   0.80732546   0.15853742  -0.30215796   0.90876969    1.7682452   0.15710276   0.16047343   0.15803608 
 7555000   0.80495834   0.15741811  -0.30378758   0.90358955     1.756997   0.15533303   0.15694101   0.15998028 
 7556000   0.80124399   0.15355793  -0.30448609   0.89731981    1.7298001   0.15307718   0.15309422   0.15450237 
 7557000   0.80171412   0.15250222  -0.30672932   0.89578174    1.7225387   0.15113464   0.15274437   0.15362764 
 7558000   0.80035134   0.15353437   -0.3069374   0.89352957    1.7258821   0.15007332   0.15314635   0.15738344 
 7559000   0.80179086   0.15497193  -0.30481365    0.8978125    1.7379585   0.15697041   0.15126436   0.15668101 
 7560000   0.80079486   0.15407709  -0.30464069   0.89649154    1.7317864   0.15333458   0.15235778   0.15653892 
 7561000   0.80536917   0.15437395  -0.30555986   0.90243349    1.7393377   0.15571389   0.15052774   0.15688021 
 7562000   0.80945097   0.15367687  -0.30520757   0.90890817    1.7420333   0.15486496   0.15314888   0.15301676 
 7563000   0.80293816   0.15660871  -0.30270895   0.90163807    1.7506575   0.15894191   0.15665193    0.1542323 
 7564000    0.8008289   0.15462533  -0.30684441   0.89433887    1.7326059   0.15260085   0.15636062   0.15491453 
 7565000   0.79763209   0.15220907  -0.30516608   0.89122224      1.71639    0.1513836   0.15211575   0.15312788 
 7566000    0.7931579   0.15202003  -0.30595935   0.88371801    1.7078609   0.15083089   0.15093911   0.15429009 
 7567000   0.79780923   0.15569807  -0.30313962   0.89351439     1.737597   0.15937716   0.15195926   0.15575779 
 7568000     0.797019   0.15076072  -0.30764636   0.88782236    1.7051382   0.15153379   0.15097093   0.14977744 
 7569000    0.8078835   0.15439261  -0.30570202   0.90606264     1.743068   0.15303642   0.15465786   0.15548356 
 7570000   0.80728318   0.15688406  -0.30737688   0.90348735    1.7539995   0.15411698   0.15900705   0.15752815 
 7571000   0.80231355   0.15487868  -0.30640239   0.89700775    1.7366482   0.15364085   0.15441646   0.15657874 
 7572000   0.80389179   0.15725789  -0.30278142   0.90299597    1.7555348   0.15779105   0.15870252   0.15528011 
 7573000   0.80022239   0.15459207  -0.30326781   0.89700576    1.7350924   0.15530808   0.15686164   0.15160649 
 7574000   0.80512792   0.15822596  -0.30252481   0.90510669    1.7628937   0.16002986   0.15863257   0.15601544 
 7575000   0.80094019   0.15597309  -0.30768792    0.8936623    1.7392359   0.15564322   0.15790621   0.15436983 
 7576000   0.79684757   0.15487177  -0.30398174   0.89122986    1.7308329    0.1539989   0.15573646   0.15487994 
 7577000    0.7964163   0.15499123  -0.30626938   0.88829534    1.7285459   0.15560222   0.15450756    0.1548639 
 7578000   0.79430546   0.15117529  -0.31030051    0.8810981    1.7006615   0.15030531   0.15275223   0.15046834 
 7579000   0.79969821   0.15150482  -0.30780564    0.8916817    1.7130315   0.15174252   0.15204409   0.15072785 
 7580000    0.8014687   0.15295344  -0.30712546   0.89501748    1.7242207   0.15318144   0.15090891   0.15476998 
 7581000     0.799518    0.1525135  -0.30611956   0.89309748    1.7199157   0.15454707    0.1500007   0.15299274 
 7582000    0.7993875   0.15404544   -0.3054748   0.89354651    1.7286697   0.15728941   0.15206947   0.15277744 
 7583000   0.80276812   0.15616989  -0.30522507   0.89886691    1.7455074   0.15596531   0.15682748   0.15571689 
 7584000   0.80332144   0.15795514   -0.3051108   0.89981111    1.7561299   0.15624472   0.15863682   0.15898387 
 7585000   0.80202423   0.15413034  -0.30651359    0.8964626    1.7320461    0.1526058   0.15497188   0.15481333 
 7586000   0.79614839   0.15696962  -0.30369162   0.89047126    1.7414473   0.15275586   0.16145646   0.15669653 
 7587000    0.7969113   0.15104718  -0.30610235   0.88920483    1.7080737   0.14729439   0.15235353   0.15349362 
 7588000   0.79172126   0.15292954  -0.30628964   0.88123287    1.7103065   0.15228671   0.15630293   0.15019898 
 7589000   0.79081315   0.15112381  -0.30795702    0.8782034    1.6974877   0.14982858   0.14946533   0.15407753 
 7590000   0.79588908   0.15217821   -0.3046678   0.88910614    1.7141066   0.15016175    0.1502702   0.15610269 
 7591000   0.79945241   0.15377441  -0.30457794   0.89454071    1.7281946   0.15247078   0.15329796    0.1555545 
 7592000   0.79385121   0.15074754  -0.30854734   0.88216994    1.6994143   0.15302306    0.1484622   0.15075735 
 7593000   0.79786917   0.15629988  -0.30281425   0.89392967    1.7412748   0.15541162   0.15669388   0.15679412 
 7594000    0.8015713   0.15347069  -0.30689171   0.89540512    1.7274125   0.15801955   0.15152842   0.15086411 
 7595000   0.80538407   0.15362017  -0.30696614   0.90104956    1.7338673   0.15045697   0.15402657   0.15637697 
 7596000   0.80185339   0.15450789  -0.30734088   0.89537907    1.7330094   0.15296528   0.15601207   0.15454634 
 7597000    0.8035071   0.15343933  -0.30630668    0.8988937     1.730731   0.15317065   0.15314893    0.1539984 
 7598000   0.79954445   0.15570953  -0.30326448   0.89599223     1.740137   0.15524481   0.15467034   0.15721344 
 7599000   0.79715203   0.15651599  -0.30370166    0.8919666    1.7404834   0.15505509   0.15900088   0.15549201 
 7600000   0.79587245   0.15680706  -0.30333333   0.89041565    1.7405104   0.15653563   0.16031325   0.15357232 
 7601000   0.79740957   0.15180193  -0.30850515   0.88754939    1.7105099   0.15222491   0.15216985   0.15101103 
 7602000   0.79621922   0.15434304   -0.3053625   0.88890662    1.7256432   0.15652412   0.15349546   0.15300953 
 7603000   0.79978279   0.15471524   -0.3041835   0.89543069    1.7341851    0.1567761   0.15509058   0.15227904 
 7604000   0.80585973   0.15738335  -0.30270975    0.9060194    1.7592384    0.1573559   0.15669581   0.15809835 
 7605000   0.80017346   0.15376381  -0.30572169   0.89447849    1.7280749   0.15528171    0.1521161   0.15389361 
 7606000   0.80403423   0.15519504  -0.30438048   0.90161056    1.7429661   0.15146276   0.15754933   0.15657303 
 7607000   0.80787389    0.1532609  -0.30744616   0.90430409    1.7351741   0.15368822   0.15437813   0.15171636 
 7608000   0.80586143   0.15147799  -0.30637892   0.90235279    1.7235571   0.14999616   0.15121937   0.15321843 
 7609000   0.80151954   0.15299724  -0.30818487   0.89403434     1.723475   0.15198715   0.15248824   0.15451632 
 7610000   0.80112525   0.15318834  -0.30508363   0.89654416    1.7270208   0.15674715   0.15097753   0.15184032 
 7611000   0.79819107   0.15757297  -0.30542114   0.89180559    1.7460525   0.15666758   0.15821995   0.15783138 
 7612000   0.80076181   0.15420245  -0.30648238   0.89460027    1.7305747    0.1495055   0.15820333   0.15489851 
 7613000   0.79784778   0.15232807  -0.30580039   0.89091144    1.7167243   0.15002541   0.15485056   0.15210823 
 7614000   0.80000319   0.15454598  -0.30603627   0.89390852    1.7317453   0.15852295   0.15158285   0.15353213 
 7615000   0.79762424   0.15679721  -0.30205897   0.89431757    1.7443589   0.15740631   0.15298991    0.1599954 
 7616000   0.79513238   0.15481924  -0.30405144   0.88858749    1.7279057   0.15708999   0.15435886   0.15300887 
 7617000   0.79818139   0.15650116  -0.30577775   0.89143448    1.7398709   0.15615215   0.15867764   0.15467369 
 7618000   0.79695642   0.15279084   -0.3073556   0.88801926    1.7163409    0.1539063   0.15588665   0.14857956 
 7619000   0.79391217   0.15086164  -0.30504716   0.88576155    1.7036245   0.15614859     0.145584   0.15085233 
 7620000   0.79860394   0.15251445  -0.30880071   0.88904531    1.7158686   0.15323912   0.15343099   0.15087324 
 7621000   0.80085777   0.15505569  -0.30500368   0.89622292     1.736823   0.15226546   0.15983822   0.15306338 
 7622000   0.80090165   0.15784055  -0.30456543   0.89672698    1.7524246   0.15957558   0.15864748   0.15529858 
 7623000   0.79750117   0.15232727  -0.30514943   0.89104251    1.7168511   0.15069819   0.15214336   0.15414024 
 7624000   0.79772058   0.15114232   -0.3068127   0.88970835     1.709093   0.15758719   0.14859941   0.14724036 
 7625000   0.79643101   0.15497726   -0.3080091   0.88657768    1.7267526   0.15577474   0.15665579   0.15250124 
 7626000   0.80209783   0.15255704  -0.30861145   0.89447514    1.7215293    0.1549944   0.15038055   0.15229616 
 7627000   0.80799643   0.15628522  -0.30544778   0.90648626     1.753752   0.15992865   0.15415939   0.15476763 
 7628000   0.80985862   0.15590967  -0.30529642   0.90943077    1.7546605   0.15409416   0.15447903   0.15915581 
 7629000   0.80385314     0.153303   -0.3100235   0.89569592    1.7267942   0.15238698   0.15493145   0.15259056 
 7630000   0.80350824   0.15190857  -0.30601843   0.89918367    1.7227223   0.15325845   0.15103765    0.1514296 
 7631000    0.8027832   0.15315584  -0.30676751   0.89734708    1.7276475   0.15236901   0.15205495   0.15504356 
 7632000   0.80161541    0.1547275  -0.30440207   0.89796093    1.7367818   0.15609022   0.15540785   0.15268443 
 7633000   0.80525247   0.15213087  -0.30837115   0.89944716     1.724191   0.15059744   0.15472864   0.15106653 
 7634000   0.80158494   0.15262591  -0.30597849    0.8963388    1.7237664   0.15041157   0.15456943   0.15289673 
 7635000   0.80248122   0.15471012   -0.3042713   0.89939034     1.738117   0.15376795    0.1547707   0.15559172 
 7636000   0.80183122   0.15631589   -0.3052989   0.89738779    1.7448197   0.15606969   0.16150459   0.15137337 
 7637000    0.8056085    0.1600099  -0.30136948   0.90698285    1.7744411    0.1619128   0.15914616   0.15897074 
 7638000   0.80178688   0.15362466   -0.3070464   0.89557379    1.7284159   0.15380225   0.15193786   0.15513388 
 7639000   0.79632726   0.15978332  -0.29889056    0.8955406    1.7617705   0.16032888   0.16009773   0.15892333 
 7640000   0.80387572   0.15165451  -0.30594637   0.89980692    1.7219683   0.14921098   0.14985084   0.15590172 
 7641000   0.79952879   0.15806628  -0.30351636   0.89571686    1.7526382   0.15583579   0.16030049   0.15806256 
 7642000   0.80252837   0.15391861  -0.30791873   0.89581364    1.7302493   0.15234135   0.15313649   0.15627799 
 7643000   0.79680675   0.15468475  -0.30404361   0.89110675    1.7296959   0.15091689   0.15782833   0.15530905 
 7644000   0.79485136   0.14982184  -0.30850525   0.88371218    1.6959381   0.15322611   0.14636035   0.14987906 
 7645000   0.79275897   0.15195081  -0.30565163   0.88342737     1.707195   0.15070769   0.15564581   0.14949892 
 7646000   0.80311927   0.15882629  -0.30197735   0.90264132    1.7636829    0.1574735   0.15764392   0.16136145 
 7647000   0.80241498   0.15609851   -0.3059556   0.89760668    1.7438602   0.15640578   0.15691519   0.15497457 
 7648000   0.80526313    0.1528686  -0.30754258   0.90029172     1.729035   0.15279281   0.15533256   0.15048042 
 7649000   0.79881983   0.15621062  -0.30406343    0.8941064    1.7409677   0.15325709   0.15920343   0.15617136 
 7650000   0.80254939   0.15931722  -0.30305558   0.90070832    1.7644114   0.16086842   0.16045887   0.15662438 
 7651000   0.80234181   0.15330143  -0.30434783   0.89910471    1.7301945   0.15232423   0.15551812   0.15206194 
 7652000   0.80055223   0.15517513  -0.30141961   0.89934869    1.7405963   0.15628331   0.15543418   0.15380791 
 7653000   0.78764855   0.15228584  -0.30568975     0.875724     1.701308   0.15165904   0.15262939   0.15256909 
 7654000   0.79919892   0.15362833  -0.30855065   0.89018778    1.7230497   0.15844824   0.15196599   0.15047075 
 7655000   0.79679466   0.15314784  -0.30569349   0.88943873    1.7196959   0.15351822   0.14857238   0.15735293 
 7656000   0.79838527   0.15636525  -0.30470145   0.89281658    1.7405161   0.15587325   0.15565021   0.15757227 
 7657000   0.80036569   0.15114333   -0.3067348   0.89375372    1.7131438   0.15128842   0.15190091   0.15024065 
 7658000   0.79864525   0.15399303  -0.30643538    0.8914726    1.7263117   0.15363863   0.15546703   0.15287341 
 7659000   0.80938511   0.15815031  -0.30317918   0.91083777    1.7682147   0.15697552   0.15519868   0.16227673 
 7660000   0.80309986   0.15783946  -0.30120378   0.90338578    1.7590775   0.15445529   0.15562788   0.16343522 
 7661000   0.80069448   0.15674044  -0.30162541   0.89935626    1.7490898    0.1568006   0.15896034   0.15446036 
 7662000   0.80145206    0.1560296  -0.30480512   0.89731286    1.7431928    0.1566225   0.15922145   0.15224485 
 7663000   0.80067612   0.15432041   -0.3073386   0.89361553    1.7302294   0.15076204   0.15631292   0.15588626 
 7664000   0.79752831    0.1571235  -0.30521878   0.89101386    1.7428241   0.15389882   0.15872251   0.15874917 
 7665000   0.79841598   0.15619487  -0.30357238   0.89399171    1.7407676   0.15703975   0.15467411   0.15687075 
 7666000   0.80251647   0.15453463  -0.30797958   0.89573493    1.7335102   0.15503566   0.15574462   0.15282361 
 7667000   0.80575517   0.15249265  -0.30506196   0.90351036    1.7302155   0.15482759   0.15087293   0.15177742 
 7668000   0.80021886    0.1541998  -0.30639278   0.89387549    1.7298355   0.15436524    0.1549764   0.15325776 
 7669000   0.80431646   0.15362017  -0.30589501   0.90051936    1.7333371   0.15182612   0.15653526   0.15249912 
 7670000    0.8021745   0.15350699  -0.30625495   0.89694664    1.7291508   0.15346768   0.15151133   0.15554194 
 7671000    0.7973894   0.15245467  -0.30705385   0.88897044    1.7154697   0.15217949   0.14921338   0.15597114 
 7672000   0.79127995   0.15269389  -0.30435069   0.88250989     1.710306    0.1524825   0.15310819   0.15249098 
 7673000   0.78467251   0.14957002  -0.30682918   0.87012074    1.6809815   0.15056475    0.1473503   0.15079501 
 7674000     0.794389   0.15464609  -0.30687349   0.88465043      1.72303   0.15871882   0.14737257   0.15784688 
 7675000   0.79779833   0.15364278  -0.30553273   0.89110492    1.7240452    0.1552284   0.15273032   0.15296961 
 7676000    0.8001155   0.15513915  -0.30460669   0.89550656    1.7365591    0.1557995   0.15756252   0.15205545 
 7677000   0.80520861   0.15417268  -0.30647147   0.90128106    1.7370941   0.15498462    0.1546566   0.15287682 
 7678000   0.80518412   0.15803461  -0.30266877   0.90504702    1.7617966   0.15827171   0.15513182   0.16070028 
 7679000   0.80619504   0.15719552  -0.30365959    0.9055725    1.7577732   0.16076521   0.15488219   0.15593917 
 7680000    0.7985745   0.15406685  -0.30749427   0.89030759    1.7255469   0.15509462   0.15305207   0.15405387 
 7681000   0.79646696    0.1537246  -0.30742331    0.8872174    1.7206013   0.15330671   0.15710507   0.15076201 
 7682000   0.79943492   0.15373794  -0.30596432    0.8931281    1.7265843   0.15329062   0.15776997   0.15015323 
 7683000   0.79472055   0.15381393  -0.30525689   0.88676433    1.7206325   0.15469926   0.15435183   0.15239072 
 7684000    0.7979332   0.15660375  -0.30390233   0.89293762    1.7419302   0.15789675   0.15429746   0.15761704 
 7685000   0.79608091   0.15116763  -0.30757858   0.88648307    1.7060049    0.1518628   0.15100423   0.15063585 
 7686000    0.7908917   0.15266116  -0.30514166   0.88113658    1.7087552   0.15344166    0.1499141   0.15462772 
 7687000    0.8019619    0.1579267  -0.30378724   0.89909547    1.7552601   0.15905211    0.1593263   0.15540168 
 7688000   0.80414797   0.15545562  -0.30528979   0.90087186    1.7436401   0.15446574   0.15657299   0.15532812 
 7689000   0.80382044   0.15908011  -0.30204906   0.90362131    1.7660389   0.15863392     0.159855   0.15875142 
 7690000   0.80411454    0.1511794  -0.30784359   0.89826791    1.7178536   0.15158784   0.15352599   0.14842438 
 7691000   0.80161463   0.15155118  -0.30573257   0.89662925    1.7182304   0.15432452   0.14861299   0.15171604 
 7692000   0.79592058   0.15164086  -0.30644532   0.88737585    1.7094632   0.15604878   0.14802806   0.15084574 
 7693000   0.79518623   0.15172745  -0.30594433   0.88677538    1.7093321    0.1515623    0.1518319   0.15178815 
 7694000     0.794623   0.15232034  -0.30485955   0.88701536    1.7127863   0.15296802   0.15105461   0.15293838 
[...]
 7841000   0.79472041   0.15462131  -0.30401486   0.88800615    1.7262513   0.15430375   0.15305143   0.15650875 
 7842000   0.79405624    0.1550396  -0.30496165   0.88606316     1.726576    0.1563667   0.15461642   0.15413569 
 7843000   0.79967244   0.15209377  -0.30499521   0.89445348    1.7189962   0.15280916   0.15176192   0.15171024 
 7844000   0.80831107   0.15341627  -0.30625673   0.90614925    1.7378616    0.1549681   0.15424976   0.15103096 
 7845000   0.80727818   0.15142489  -0.30617063    0.9046861    1.7256026   0.15209379   0.15300191   0.14917898 
 7846000   0.80478033   0.15508003  -0.30737027   0.89973987    1.7404719   0.15183158   0.15763015   0.15577834 
 7847000   0.79781884   0.15606927  -0.30537716   0.89129126    1.7373862   0.15598518   0.15665542    0.1555672 
 7848000   0.79305501   0.15349556  -0.30629361   0.88322944    1.7153716   0.15508133   0.15099758   0.15440777 
 7849000   0.78827711   0.15469856   -0.3025792   0.87977735    1.7184413   0.15614326    0.1537436   0.15420883 
 7850000   0.80146459   0.15562775  -0.30594446   0.89619231    1.7398937   0.15865044   0.15290729   0.15532552 
 7851000   0.80098052   0.15566051  -0.30458334   0.89682737    1.7407063   0.15873468   0.15624314    0.1520037 
 7852000   0.78953455   0.15420294  -0.30315297   0.88108965    1.7170667   0.15543334   0.15017235   0.15700312 
 7853000   0.80324317   0.15398478  -0.30868929   0.89611521    1.7309096   0.15150165   0.15553908   0.15491361 
 7854000   0.80232796   0.15335186  -0.30511321   0.89831855    1.7296817   0.15246192   0.15278773   0.15480593 
 7855000   0.80542423   0.15617234  -0.30400811   0.90406784    1.7507216   0.15418357   0.15374982   0.16058361 
 7856000   0.80470176   0.15574797  -0.30488683   0.90210546    1.7464586   0.15415245   0.15535244   0.15773903 
 7857000   0.79485541   0.15009308  -0.30784764   0.88437585    1.6980723    0.1491156   0.15093488   0.15022877 
 7858000    0.7951319   0.15539145  -0.30377248   0.88886574    1.7312861   0.16010977   0.15428469   0.15177989 
 7859000   0.79653392   0.15407919  -0.30331667   0.89142448    1.7267307   0.15377113   0.15270575   0.15576067 
 7860000   0.79982355   0.15411396  -0.30651766   0.89315768    1.7286524   0.15716248   0.15324228   0.15193711 
 7861000    0.8051763    0.1573434  -0.30426442   0.90343964     1.756442   0.15611983   0.15637143   0.15953894 
 7862000   0.80345659   0.15230068  -0.30857481   0.89654981    1.7222142   0.15277238   0.15165553   0.15247414 
 7863000   0.80925578   0.15575734  -0.30248018    0.9113428    1.7557467    0.1585942   0.15159905   0.15707877 
 7864000   0.80592771   0.15937826  -0.30291119   0.90591993    1.7699539   0.16052951   0.16015062   0.15745466 
 7865000   0.79993731   0.15681158  -0.30193343   0.89791254    1.7480318    0.1583738   0.15426227   0.15779867 
 7866000   0.80431479   0.15598416  -0.30580853   0.90060333    1.7462369   0.15766186   0.15635698   0.15393366 
 7867000   0.80437031   0.15451301  -0.30609392   0.90040121    1.7380593   0.15559893   0.15326359   0.15467652 
 7868000    0.7961221   0.15028028  -0.30588934   0.88823409    1.7029453   0.15366244   0.15093002   0.14624839 
 7869000   0.79453922   0.15102761  -0.30407069   0.88767855    1.7064413   0.14935741   0.14963473   0.15409069 
 7870000   0.79826257   0.15085667  -0.30809602   0.88923797     1.707074   0.15237453   0.15001982   0.15017567 
 7871000    0.7990875   0.15359746  -0.30732938   0.89124194    1.7239365   0.15261254   0.15418225   0.15399758 
 7872000    0.7999752   0.15220479   -0.3048405    0.8950623    1.7202069   0.15440821   0.15111572   0.15109046 
 7873000   0.80789249   0.15498693  -0.30592316   0.90585497    1.7460823   0.15584173   0.15373857   0.15538048 
 7874000    0.8014376   0.15513487  -0.30516896   0.89692733    1.7379567   0.15759235   0.15159247   0.15621978 
 7875000   0.80072127   0.15506054  -0.30281931   0.89820253    1.7388289   0.15453021   0.15487275   0.15577867 
 7876000   0.79447813   0.15207356  -0.30768435   0.88397326    1.7084064   0.15234118   0.14848068   0.15539881 
 7877000   0.79512795   0.15096141    -0.307522   0.88511029    1.7035141   0.15250063   0.14884427   0.15153934 
 7878000   0.79737129    0.1559967  -0.30410877   0.89188836    1.7375899   0.15719495    0.1546951   0.15610005 
 7879000   0.79494317   0.15332267  -0.30447787   0.88787727    1.7190822   0.15439958   0.15449288   0.15107556 
 7880000   0.79830837   0.15650335  -0.30365525   0.89374743    1.7421957   0.15740537   0.15379133   0.15831336 
 7881000    0.8001648   0.15097906  -0.31074784   0.88943934    1.7079389   0.15519392   0.14736741   0.15037584 
 7882000   0.80080728   0.15369291  -0.30303312   0.89811773    1.7313298   0.15080449   0.15438227   0.15589197 
 7883000   0.80649346   0.15529537  -0.30729704   0.90238267    1.7442821   0.15432907     0.154038   0.15751903 
 7884000   0.80911377   0.15804215  -0.30459828   0.90901169    1.7658022   0.15745866   0.16029739   0.15637038 
 7885000   0.79574348   0.15396063  -0.30758365   0.88597189    1.7206353   0.15316391   0.15510073   0.15361724 
 7886000   0.79843633   0.15438097  -0.30671466   0.89087995    1.7278222   0.15308596   0.15407874   0.15597821 
 7887000   0.79502601   0.15249641  -0.30655579    0.8859236    1.7126491   0.14978943   0.15221683   0.15548297 
 7888000   0.79029068   0.15121217  -0.30871709   0.87665966     1.696423   0.15039497   0.15223977   0.15100179 
 7889000   0.79503622   0.15199771  -0.30619123   0.88630346    1.7103254   0.15003412   0.15019912   0.15575989 
 7890000   0.80173198   0.15335614  -0.30750713   0.89503071    1.7264171    0.1540385   0.15320422    0.1528257 
 7891000   0.80472747   0.15560289  -0.30600699   0.90102386    1.7445905   0.15386149    0.1572349   0.15571229 
 7892000   0.80227608   0.15148228  -0.30438822   0.89896573    1.7201933   0.15316983   0.15337678   0.14790022 
 7893000   0.80280505    0.1538715   -0.3062572   0.89789017    1.7320704   0.15423132    0.1552912   0.15209198 
 7894000   0.80648893   0.15835258  -0.30364762   0.90602528    1.7644987   0.15850997     0.158678   0.15786977 
 7895000   0.80738254   0.15444881  -0.30600901   0.90500424    1.7423143   0.15363062   0.15294361    0.1567722 
 7896000   0.80516312   0.15423203  -0.30688401   0.90080028    1.7369351   0.15395196   0.15772994   0.15101418 
 7897000   0.80275261   0.15863575  -0.30440499   0.89966371    1.7596723   0.15954223   0.15936261   0.15700241 
 7898000   0.80267917   0.15523796  -0.30541952   0.89853904    1.7401273   0.15179818   0.15578887   0.15812683 
 7899000   0.79120561   0.14988004  -0.30792902   0.87882005    1.6913615    0.1500733   0.15027151    0.1492953 
 7900000   0.79511281    0.1552038  -0.30516604   0.88744354    1.7288465   0.15720772   0.15506608   0.15333759 
 7901000   0.80195621   0.15494322  -0.30283223   0.90004194    1.7400323   0.15777692   0.15124083   0.15581192 
 7902000   0.80398878   0.15687505  -0.30367904   0.90224384    1.7527072   0.15469861   0.15630619   0.15962036 
 7903000   0.80178682    0.1530925  -0.30654106   0.89607902    1.7260361   0.15227763    0.1519923   0.15500758 
 7904000   0.80128966   0.15636966  -0.30455953   0.89731486    1.7450383   0.16066805   0.15366394   0.15477699 
 7905000   0.79854972   0.15193407  -0.30714071   0.89062398    1.7143009   0.15510562   0.14987337   0.15082321 
 7906000   0.79811047   0.15341454  -0.30643663   0.89066921    1.7223722   0.15139606   0.15351105   0.15533652 
 7907000   0.79515822   0.15243425  -0.30421124   0.88846645     1.714855   0.15603536   0.15116784   0.15009955 
 7908000   0.80358818   0.15514103  -0.30499316   0.90032884    1.7413916   0.15669935   0.15369943   0.15502431 
 7909000   0.80525113   0.15498167  -0.30748675   0.90032955    1.7405284   0.15397134   0.15576988    0.1552038 
 7910000   0.80456765   0.15482249  -0.30688277   0.89990836    1.7392442   0.15832975   0.15283669   0.15330104 
 7911000   0.80019885   0.15423544  -0.30762519   0.89261306    1.7287663   0.15539293   0.15488068   0.15243271 
 7912000   0.79287465   0.15220184   -0.3032348   0.88601771    1.7111463   0.14891585   0.15355869   0.15413099 
 7913000   0.79984375   0.15345141  -0.30642307   0.89328256    1.7251854   0.15249353   0.15333481    0.1545259 
 7914000    0.8022988   0.15566196  -0.30496253    0.8984255    1.7423124   0.15478169   0.15446456   0.15773964 
 7915000   0.81010005   0.15696268  -0.30257443   0.91251489    1.7634533    0.1552309   0.15958181   0.15607534 
 7916000   0.80211503   0.15423268  -0.30347069   0.89964169      1.73578   0.15652079   0.15557545    0.1506018 
 7917000   0.79980244   0.15352843  -0.30673847    0.8929052    1.7252256   0.15565017   0.15549229   0.14944281 
 7918000   0.79377008   0.15749738  -0.29979434   0.89080125    1.7446384   0.15624271   0.15697082    0.1592786 
 7919000   0.79276855   0.15508349  -0.30137898   0.88771439    1.7284652   0.15412577   0.15503443   0.15609028 
 7920000   0.79668726   0.15334821  -0.30584157   0.88912957    1.7204729   0.15323867     0.155719   0.15108695 
 7921000   0.79423909   0.15566137  -0.30293476   0.88836431    1.7322479    0.1549857   0.15733295   0.15466544 
 7922000   0.80266264   0.15875447  -0.29963041   0.90430335    1.7649556   0.15674786   0.16070303   0.15881254 
 7923000    0.8043678   0.15695777  -0.30358559   0.90290578    1.7538176   0.15546458   0.15714571   0.15826302 
 7924000   0.80384968   0.15746894  -0.30118153   0.90453271    1.7582157   0.15891108   0.15393084    0.1595649 
 7925000   0.80555266   0.15020369  -0.31013783   0.89813074    1.7124268    0.1471566   0.15418477   0.14926971 
 7926000   0.80708249   0.15664164  -0.30475111    0.9058121    1.7550101   0.15693661   0.15466925   0.15831906 
 7927000   0.80017108   0.15155085  -0.30745741    0.8927392    1.7143385   0.14994741   0.15481545   0.14988967 
 7928000   0.79841923   0.15148167  -0.30759791   0.88997105    1.7111954   0.15077464   0.15102404   0.15264633 
 7929000   0.79691827   0.15321532  -0.30448496   0.89083268    1.7214556   0.15282988   0.15376099   0.15305511 
 7930000   0.79777459   0.15199143   -0.3067566   0.88984544    1.7138333   0.15177871   0.14934294   0.15485264 
 7931000   0.80033308   0.15296708  -0.30655583   0.89388378    1.7231609    0.1538007   0.15213795    0.1529626 
 7932000   0.80569441   0.15476151  -0.30582143   0.90265976     1.741665   0.15729541   0.15533054   0.15165858 
 7933000   0.80362566   0.15616791  -0.30242742    0.9029508    1.7495805   0.15631089    0.1580041   0.15418873 
 7934000   0.79739038   0.15465492  -0.30313134   0.89289442    1.7313218   0.15183046   0.15311483   0.15901946 
 7935000   0.79276988   0.15156705  -0.30602663   0.88306874    1.7047559   0.14936966   0.15371011   0.15162138 
 7936000   0.80148642   0.15131513  -0.31057539   0.89159412    1.7119156   0.15272161   0.15101415   0.15020963 
 7937000   0.80128156   0.15621329  -0.30403777   0.89782447    1.7447002   0.15434027   0.15702555   0.15727404 
 7938000   0.80365582    0.1580962  -0.30392721   0.90149625    1.7585798   0.15814754   0.15678747    0.1593536 
 7939000   0.80285592   0.15451732   -0.3049298   0.89929387    1.7369753    0.1544395   0.15355779   0.15555465 
 7940000   0.79576396   0.15290216  -0.30854507   0.88504119    1.7139664   0.15500895   0.15114409   0.15255344 
 7941000     0.798511   0.15144618  -0.30630639   0.89140023    1.7124321   0.15213646   0.15193227    0.1502698 
 7942000   0.79980263   0.15449437  -0.30457035   0.89507361    1.7326306   0.15006154   0.15641052   0.15701105 
 7943000   0.80717769   0.15406985  -0.30654519    0.9041608    1.7394164   0.15618392    0.1511723   0.15485332 
 7944000    0.8039893    0.1577519  -0.30382136   0.90210229    1.7573193   0.15612715   0.15737121   0.15975735 
 7945000   0.80383806   0.15619134  -0.30479426   0.90090255    1.7476593   0.15448652   0.15751668   0.15657082 
 7946000   0.80619391   0.15621402  -0.30603881   0.90319159    1.7500713   0.15993774   0.15360565   0.15509866 
 7947000   0.80995081   0.15816501   -0.3035679   0.91129757    1.7687541   0.15627904   0.15908737    0.1591286 
 7948000   0.79761069   0.15223931  -0.30650339   0.88985282    1.7151845   0.15140622   0.15053695   0.15477477 
 7949000    0.7971348   0.15186174  -0.30796849   0.88767393    1.7109587   0.15070377   0.15143166   0.15344981 
 7950000   0.79445255   0.15169358  -0.30603153   0.88558771    1.7079609    0.1535783   0.15019752   0.15130493 
 7951000   0.79626456   0.15546075  -0.30408473   0.89025239    1.7330484   0.15493258   0.15580879   0.15564087 
 7952000    0.8006648   0.15620253  -0.30615167   0.89478548    1.7416029   0.15473678   0.15461262   0.15925821 
 7953000   0.80070606   0.15433176  -0.30649888   0.89450016    1.7311756   0.15239928    0.1540181   0.15657789 
 7954000   0.80272506   0.15568495  -0.30414088   0.89988651     1.743898   0.15471581   0.15788198   0.15445705 
 7955000   0.79929947   0.15520431  -0.30243942   0.89644984    1.7378556   0.15841512   0.15439798   0.15279981 
 7956000   0.80439073   0.15725091  -0.30398378   0.90254199     1.755043   0.15715175   0.15832902   0.15627197 
 7957000   0.80463522   0.15432221  -0.30636851   0.90052396    1.7371477   0.15312068   0.15628654   0.15355941 
 7958000   0.79281901   0.15272004   -0.3036072   0.88556185    1.7134997   0.15346175   0.15206009   0.15263829 
 7959000   0.78926684   0.14897196   -0.3060712   0.87776987    1.6853883   0.14943932   0.14536909   0.15210746 
 7960000   0.80062409   0.15152823  -0.30740661   0.89346948    1.7149462   0.14932357   0.15069857   0.15456254 
 7961000    0.7956525    0.1558576  -0.30530095   0.88811813    1.7330656    0.1564467   0.15303596   0.15809013 
 7962000    0.7954402   0.15515106  -0.30470678   0.88839387    1.7295109   0.15482603   0.15357193    0.1570552 
 7963000   0.79396625   0.15176254  -0.30593342   0.88495641    1.7077034    0.1530964   0.14793857   0.15425264 
 7964000   0.80714195   0.15357465  -0.30844689   0.90220549    1.7347765    0.1541661   0.15395926   0.15259859 
 7965000   0.80149003   0.15435041   -0.3046162   0.89755874    1.7343353   0.15325762   0.15583771   0.15395591 
 7966000   0.80386218   0.15589268  -0.30519751   0.90053547    1.7456731   0.15545174   0.15684002   0.15538628 
 7967000   0.80456923   0.15739057  -0.30305216   0.90374134    1.7569995   0.15511344   0.15579711   0.16126117 
 7968000    0.8088861   0.15492421  -0.30699514   0.90627334    1.7461606   0.15508056    0.1547361   0.15495597 
 7969000   0.79760905   0.15416382  -0.30191384   0.89443991    1.7302049     0.154395   0.15557437   0.15252208 
 7970000   0.79882602    0.1520606  -0.30779076   0.89038837    1.7147512   0.15167335   0.15256954    0.1519389 
 7971000   0.79529898   0.15493757  -0.30503212    0.8878567    1.7278164   0.15736864   0.15441654   0.15302752 
 7972000   0.79796417   0.15510696  -0.30582849   0.89105792     1.731936   0.15563728   0.15387108   0.15581252 
 7973000   0.79416764   0.15236142  -0.30521598   0.88597592    1.7119696   0.15187855   0.15397147   0.15123423 
 7974000   0.79886991   0.15482863  -0.30383548   0.89440947    1.7337786   0.15637006   0.15288145   0.15523438 
 7975000   0.79682591   0.15462442  -0.30594198   0.88923712    1.7274991   0.15332833   0.15368596   0.15685896 
 7976000   0.79779667   0.15372336   -0.3063147   0.89032048    1.7236976   0.15077762   0.15622809   0.15416438 
 7977000   0.80455652   0.15405855  -0.30713613    0.8996383    1.7348326   0.15169719   0.15209768   0.15838079 
 7978000   0.80496676   0.15642421  -0.30443992   0.90294985    1.7509691    0.1580059   0.15290572   0.15836102 
 7979000   0.80393245   0.15614927  -0.30692856   0.89890983    1.7454385   0.15850028   0.15205573    0.1578918 
 7980000   0.80113357   0.15589128   -0.3047787   0.89686157    1.7419916   0.15710657   0.15459888    0.1559684 
 7981000   0.80047381    0.1570247  -0.30319654   0.89745414    1.7487288   0.15887241   0.15580879   0.15639289 
 7982000   0.79865793   0.15508969  -0.30653638   0.89139062     1.732175   0.15714982   0.15505147   0.15306779 
 7983000   0.79433293   0.15170086  -0.30696351   0.88447631    1.7068889   0.15145355   0.14821674   0.15543227 
 7984000   0.80035162   0.15233264  -0.30716041   0.89330699    1.7191447   0.14945804    0.1547981   0.15274178 
 7985000   0.79697782   0.15241738  -0.30955299   0.88585396     1.712151   0.15487678   0.15030356    0.1520718 
 7986000    0.7949735   0.15866495  -0.30345067   0.88894996    1.7491169   0.15406848   0.15969016   0.16223621 
 7987000   0.80370508   0.15685653  -0.30370155    0.9017958    1.7521587   0.15662335   0.15987944   0.15406679 
 7988000   0.80720383   0.15173441  -0.30680094   0.90394426    1.7265388   0.15123557   0.15211338   0.15185429 
 7989000   0.80442436   0.15561859  -0.30577149   0.90080472    1.7444565   0.15724527   0.15446702   0.15514349 
 7990000   0.80158616   0.15436685  -0.30437547   0.89794365    1.7348093   0.15544279   0.15394678   0.15371098 
 7991000   0.80302138    0.1540521  -0.30615359   0.89831825    1.7334776   0.15346688   0.15158044   0.15710897 
 7992000    0.8017249   0.15851169  -0.30352655   0.89900068    1.7583367    0.1590691   0.16172032   0.15474564 
 7993000   0.80751268    0.1594744  -0.30208935   0.90911911    1.7736742    0.1571524   0.16285262   0.15841816 
 7994000   0.80613445   0.15351796  -0.30769255   0.90144867    1.7337123    0.1528402   0.15439226    0.1533214 
 7995000   0.79888762   0.15771206  -0.30290834   0.89536318    1.7503642   0.15682564    0.1585131   0.15779744 
 7996000    0.7979201   0.15488142  -0.30593061    0.8908897     1.730545   0.15504134    0.1539468   0.15565611 
 7997000   0.79564788   0.15278233  -0.30640601   0.88700613    1.7152817   0.15362163   0.15164943   0.15307592 
 7998000   0.79138389   0.15274358  -0.30718272   0.87983376    1.7078993   0.14938632   0.15754066   0.15130378 
 7999000   0.79956541   0.15469805  -0.30539486   0.89389329    1.7325545   0.15357394   0.15345856   0.15706166 
 8000000   0.80097343   0.15437256  -0.30424383   0.89715624    1.7340529   0.15631607   0.15449272   0.15230889 
Loop time of 3653.56 on 1 procs for 1000000 steps with 20000 atoms

Performance: 118240.711 tau/day, 273.705 timesteps/s
99.9% CPU use with 1 MPI tasks x 1 OpenMP threads

MPI task timing breakdown:
Section |  min time  |  avg time  |  max time  |%varavg| %total
---------------------------------------------------------------
Pair    | 2175.9     | 2175.9     | 2175.9     |   0.0 | 59.56
Neigh   | 1094.8     | 1094.8     | 1094.8     |   0.0 | 29.97
Comm    | 77.791     | 77.791     | 77.791     |   0.0 |  2.13
Output  | 25.138     | 25.138     | 25.138     |   0.0 |  0.69
Modify  | 243.06     | 243.06     | 243.06     |   0.0 |  6.65
Other   |            | 36.87      |            |       |  1.01

Nlocal:    20000 ave 20000 max 20000 min
Histogram: 1 0 0 0 0 0 0 0 0 0
Nghost:    8952 ave 8952 max 8952 min
Histogram: 1 0 0 0 0 0 0 0 0 0
Neighs:    168239 ave 168239 max 168239 min
Histogram: 1 0 0 0 0 0 0 0 0 0

Total # of neighbors = 168239
Ave neighs/atom = 8.41195
Neighbor list builds = 100000
Dangerous builds = 99900

write_restart 	out.restart.sys.final.${temp}
write_restart 	out.restart.sys.final.0.8
unfix intg
unfix ploadx
undump  trj
uncompute denprof
unfix   denprof

next    t
jump    SELF temperatureloop
variable t loop 10
variable  temp  equal 0.1+($t-1)*0.1
variable  temp  equal 0.1+(9-1)*0.1

#OUTPUT
# density profile
compute denprof all chunk/atom bin/1d x center ${xbin}
compute denprof all chunk/atom bin/1d x center 0.05
fix     denprof all ave/chunk 100 1000 500000 denprof density/number file out.profile.density.${temp}.data
fix     denprof all ave/chunk 100 1000 500000 denprof density/number file out.profile.density.0.9.data

#OUTPUT
log   log.lammps.${temp}
log   log.lammps.0.9
