thermo 1000
thermo_style custom step temp press pe etotal enthalpy pxx pyy pzz
dump 		trj all atom 500 out.sys_nvt.${temp}.lammpstrj
dump 		trj all atom 500 out.sys_nvt.1.lammpstrj
restart 100000 out.restart1.${temp} out.restart2.${temp}
restart 100000 out.restart1.1 out.restart2.${temp}
restart 100000 out.restart1.1 out.restart2.1

fix ploadx all balance 10000 1.05 shift x 20 1.05
fix intg all nvt temp ${temp} ${temp} ${tdump}
fix intg all nvt temp 1 ${temp} ${tdump}
fix intg all nvt temp 1 1 ${tdump}
fix intg all nvt temp 1 1 1
run ${Nrun}
run 1000000
Per MPI rank memory allocation (min/avg/max) = 12.56 | 12.56 | 12.56 Mbytes
Step Temp Press PotEng TotEng Enthalpy Pxx Pyy Pzz 
 9000000   0.90288609   0.18237696  -0.29390062    1.0603608    2.0490771   0.18019124   0.18525807   0.18168156 
 9001000    1.0006898   0.20189734  -0.28954022    1.2114195    2.3059612   0.20069723   0.20178471   0.20321008 
 9002000   0.99508684    0.2037034  -0.28916189    1.2033937    2.3077266   0.20471486   0.19954393   0.20685141 
 9003000   0.99282017   0.20327278  -0.28747295    1.2016828    2.3036812   0.20341261   0.20005289   0.20635285 
 9004000   0.99536781   0.20280744  -0.28844952    1.2045275    2.3040032   0.20221515   0.20186106   0.20434612 
 9005000   0.99503892   0.20350849  -0.28639957    1.2060842    2.3093604   0.20523552   0.20250752   0.20278242 
 9006000    1.0007425   0.20159792  -0.28925779    1.2117809    2.3046994   0.20306495   0.19790888   0.20381994 
 9007000   0.99940948   0.20524456  -0.28635765    1.2126816    2.3253695   0.20805718   0.20263324   0.20504326 
 9008000    1.0072518   0.20975475  -0.28347098    1.2273312    2.3644701    0.2098404   0.21124971   0.20817412 
 9009000    1.0020655   0.20654685  -0.28517047    1.2178526    2.3376006   0.20381568   0.20659956    0.2092253 
 9010000    1.0045278   0.20448667  -0.28844871    1.2182676    2.3268468   0.20549554   0.20351842   0.20444604 
 9011000   0.99704844   0.20916497    -0.282709    1.2127889    2.3467304   0.21037002     0.211799   0.20532589 
 9012000    1.0015982   0.20664923  -0.28709193    1.2152302    2.3355332   0.21133488   0.20576448   0.20284834 
 9013000   0.99963136   0.20634194  -0.28484667    1.2145254    2.3331625   0.20568072   0.20856028   0.20478482 
 9014000   0.99662921    0.2035948  -0.28513604     1.209733    2.3134772   0.20404271   0.20149154   0.20525016 
 9015000   0.99243893   0.20527563   -0.2876568    1.2009272    2.3137836   0.20847017   0.20369518   0.20366155 
 9016000   0.99516961   0.20724921  -0.28548486    1.2071949    2.3307506   0.20479083   0.20689006   0.21006672 
 9017000   0.99863582   0.20625615  -0.28551439    1.2123644    2.3305365   0.20173125   0.20778516   0.20925203 
 9018000    1.0010051    0.2048844  -0.28475264    1.2166799    2.3274153   0.20968694   0.20391781   0.20104846 
 9019000    1.0084753    0.2094279  -0.28724659    1.2253907    2.3607577   0.20940347   0.21145575   0.20742448 
 9020000    1.0019239    0.2055641  -0.28682881    1.2159819    2.3304021   0.20278426    0.2089241   0.20498394 
 9021000    1.0053622   0.20451712  -0.28829398    1.2196739    2.3284181   0.20598785   0.20580351   0.20175999 
 9022000    1.0059979   0.20705818  -0.28392074    1.2250007    2.3475207   0.21166231   0.20424734   0.20526489 
 9023000    1.0007693   0.20202483  -0.28830133    1.2127776    2.3080105   0.20196219   0.20383262   0.20027969 
 9024000    1.0006579    0.2046491  -0.28737612    1.2135358    2.3229955   0.19879427   0.20661717   0.20853586 
 9025000   0.99679733   0.20334894   -0.2888963    1.2062249    2.3086362   0.20319906    0.2064136   0.20043415 
 9026000   0.99003926   0.19987512  -0.28955753    1.1954271    2.2790058   0.20297309   0.19607141   0.20058084 
 9027000   0.99021927    0.2055862  -0.28477353    1.2004811    2.3150212   0.20213157   0.20594616   0.20868088 
 9028000    1.0006331   0.20526827  -0.28642105    1.2144536      2.32727   0.20775128   0.20785065   0.20020288 
 9029000   0.99151383   0.20141828  -0.28942106    1.1977753    2.2897199   0.20145648   0.19883343   0.20396491 
 9030000    1.0005792   0.20446441  -0.28599205    1.2148017    2.3232602   0.20282529   0.20700328   0.20356467 
 9031000    1.0027307   0.20352117  -0.28864625    1.2153746    2.3187195   0.20094281   0.20552743   0.20409326 
 9032000    1.0085327   0.20725149  -0.28593143     1.226792    2.3503601   0.21307908   0.20690719    0.2017682 
 9033000     1.003056   0.20435408   -0.2882074    1.2163014    2.3241618   0.20375459   0.20480727   0.20450038 
 9034000    1.0048921   0.20400652  -0.28670429    1.2205584    2.3265346   0.20732919    0.2015389   0.20315146 
 9035000    1.0021044   0.20372688  -0.28973998    1.2133414    2.3178016   0.20375673   0.20733335   0.20009056 
 9036000    1.0035876   0.20385279  -0.28869791    1.2166082    2.3217509   0.20329486   0.20422882   0.20403468 
 9037000    1.0019936   0.20276979  -0.28997622     1.212939    2.3122105    0.2035507   0.20430528   0.20045339 
 9038000    1.0035805   0.20352989  -0.28821921    1.2170763    2.3204686   0.21020553   0.19966741   0.20071673 
 9039000   0.99625457   0.20552003  -0.28557815     1.208729    2.3229103   0.21035762   0.20156221   0.20464028 
 9040000   0.99744667   0.20199365  -0.28621488    1.2098803    2.3049442   0.20380672   0.20334258   0.19883165 
 9041000   0.99474522   0.20519279  -0.28498345    1.2070598     2.319467   0.20428944    0.2080373   0.20325163 
 9042000   0.99864771   0.20662529  -0.28642857    1.2114681    2.3316414    0.2108356    0.2088892   0.20015108 
 9043000    1.0043622   0.20436323  -0.28701979    1.2194482    2.3273582   0.20421758    0.2052802    0.2035919 
 9044000    1.0119476   0.20850021  -0.28524597    1.2325995    2.3629372   0.20778978   0.21063887   0.20707198 
 9045000    1.0106462   0.20745828  -0.28840142    1.2274921    2.3521812   0.20844282    0.2074907   0.20644131 
 9046000    1.0035183   0.20564292   -0.2878544    1.2173478    2.3321953    0.2072297   0.20636311   0.20333595 
 9047000    1.0008727   0.20464889  -0.28471455    1.2165195    2.3259781   0.20578553   0.20811721   0.20004393 
 9048000    1.0013813   0.20724478  -0.28480019    1.2171966    2.3407283   0.20831432   0.20938076   0.20403927 
 9049000   0.99942525   0.20703466  -0.28564167    1.2134212    2.3358138   0.20662851   0.20499951   0.20947596 
 9050000    1.0008749   0.20575347  -0.28602011    1.2152171     2.330664   0.20483278   0.20658605   0.20584158 
 9051000    0.9969232   0.20301027  -0.28578055    1.2095295    2.3101047   0.20373723   0.20382453   0.20146904 
 9052000   0.99675116    0.2045805  -0.28543396     1.209618    2.3187059   0.20466338    0.2056246    0.2034535 
 9053000    0.9938388   0.20256416    -0.288019    1.2026647    2.3008214    0.2030455   0.20336328   0.20128369 
 9054000    0.9937812   0.20198384  -0.28906241    1.2015349    2.2965455   0.20276259   0.19765958   0.20552934 
 9055000   0.99603316   0.20412593  -0.28642363    1.2075514    2.3141749   0.20602375    0.2015799   0.20477414 
 9056000   0.99986961   0.20634493  -0.28633794    1.2133915    2.3320448   0.20903294   0.20642419   0.20357766 
 9057000    1.0039758   0.20427711  -0.28995385    1.2159345    2.3233776    0.2047726   0.20416843    0.2038903 
 9058000    1.0113681   0.20699338  -0.28769566    1.2292807    2.3514495   0.20511112   0.20965512    0.2062139 
 9059000     1.016196   0.20630011  -0.28937718    1.2348407     2.353251   0.20541523   0.20926951   0.20421558 
 9060000    1.0003187   0.20572178  -0.28806684    1.2123362    2.3276112   0.20820362   0.20322007   0.20574165 
 9061000   0.99996503   0.20542429  -0.28774425    1.2121283    2.3257906   0.20435908   0.20451307   0.20740072 
 9062000   0.99896805   0.20216278   -0.2870417    1.2113355    2.3073162   0.20329578   0.19775244   0.20544013 
 9063000   0.99746299   0.20306844  -0.28685073    1.2092689    2.3101595   0.20002133   0.20419519    0.2049888 
 9064000   0.99359366   0.20047667  -0.28885356    1.2014624    2.2883023   0.20018047   0.20175456   0.19949499 
 9065000   0.99822275    0.2026855   -0.2886897    1.2085696    2.3073841   0.19913528   0.20443194   0.20448927 
 9066000   0.99291529   0.20060048  -0.28799609    1.2013024    2.2888135   0.19668667   0.20072978     0.204385 
 9067000    1.0055422   0.20863768  -0.28310499    1.2251329    2.3562159   0.20892696   0.20336135   0.21362473 
 9068000    1.0082695   0.20590273  -0.28905578    1.2232729    2.3395289    0.2037998   0.20740044   0.20650794 
 9069000    1.0018118   0.20438505  -0.28587675    1.2167658    2.3247941   0.20408372   0.20283802   0.20623341 
 9070000    1.0054863   0.21095439  -0.28307682    1.2250773    2.3687198    0.2138065   0.20632725   0.21272942 
 9071000    0.9989055   0.20371965  -0.28524763    1.2130357    2.3174567   0.20574463   0.20226586   0.20314847 
 9072000    0.9927142   0.20668042  -0.28461487     1.204382    2.3248541    0.2042527    0.2081201   0.20766846 
 9073000   0.99997883   0.20332736  -0.28787176    1.2120215    2.3143157   0.20554516   0.20559886   0.19883806 
 9074000   0.99380406   0.20497379  -0.28739713    1.2032344    2.3144544   0.20420911   0.20522974   0.20548251 
 9075000   0.99441666    0.2027771  -0.28898266    1.2025678    2.3018789   0.20117513    0.2031303   0.20402588 
 9076000    1.0062439   0.20642436  -0.28620668    1.2230837    2.3421677   0.20833294   0.20731528   0.20362486 
 9077000    1.0107642   0.20355981  -0.28698386    1.2290866     2.332641    0.2052331    0.2011386   0.20430774 
 9078000     1.004855   0.20426542  -0.28829531    1.2189118    2.3262915   0.20403898   0.20709784   0.20165945 
 9079000   0.99524972   0.20604647  -0.28462396     1.208176    2.3252113   0.20389745   0.20731305   0.20692892 
 9080000   0.99238796   0.20290422  -0.28770905    1.2007985    2.3007988   0.20074513   0.20441403   0.20355351 
 9081000   0.99353119   0.19978072  -0.29032425     1.199898     2.282965   0.20385417    0.1954163   0.20007169 
 9082000    1.0058664   0.20426471  -0.28892961    1.2197945    2.3271704   0.20686077   0.19958049   0.20635287 
 9083000    1.0034549   0.20806013  -0.28634371    1.2187633    2.3467152   0.20854048   0.20562751   0.21001239 
 9084000    1.0049907   0.20774825  -0.28472421    1.2226865    2.3489477   0.20781251   0.21056727   0.20486498 
 9085000    1.0066928   0.20476086  -0.28800023    1.2219634    2.3320291   0.20713322   0.20512856   0.20202081 
 9086000    1.0029115   0.20803331  -0.28404331    1.2202487    2.3480553   0.20938957    0.2065942   0.20811616 
 9087000    1.0042503   0.20651749  -0.28644179    1.2198583    2.3394471   0.20858695   0.20568704   0.20527847 
 9088000    1.0003102   0.20597314  -0.28447221    1.2159181    2.3325559   0.20930792   0.20506993   0.20354157 
 9089000    1.0111325   0.20826796  -0.28853915    1.2280838    2.3571624   0.20907212    0.2120257   0.20370607 
 9090000    0.9929645   0.20267857  -0.28684862    1.2025237    2.3013006   0.20415361     0.198016    0.2058661 
 9091000   0.99600553   0.20406297  -0.28493889    1.2089947    2.3152769   0.20217053   0.20648647   0.20353192 
 9092000   0.99566014   0.20321758  -0.28659172    1.2068238    2.3085229   0.20465856   0.20040832   0.20458586 
 9093000   0.99215107   0.20303622  -0.28747314    1.2006791    2.3013949   0.20327243   0.20207813    0.2037581 
 9094000   0.99600745   0.20431948  -0.28892626    1.2050102     2.312683   0.20399985   0.20380812   0.20515046 
 9095000   0.99057874    0.2043622  -0.28708471    1.1987091    2.3066135   0.19906229   0.20770909   0.20631521 
 9096000   0.99690152   0.20318528  -0.28800972    1.2072678    2.3087918    0.2053771   0.20569215   0.19848658 
 9097000   0.99888506    0.2083269   -0.2831641    1.2150886    2.3444867   0.21041629   0.20771557   0.20684885 
 9098000    1.0045553   0.20588791  -0.28765914    1.2190985    2.3352742   0.20879735    0.2076408   0.20122558 
 9099000   0.99950119   0.20573273  -0.28575608    1.2134207    2.3287552   0.20544499   0.20609654   0.20565666 
 9100000    1.0094311   0.20507365  -0.28634348    1.2277274    2.3394888   0.20750162   0.20075406   0.20696526 
 9101000    1.0137717   0.20790771  -0.28518837    1.2353931    2.3625187   0.20635977   0.20705201   0.21031134 
 9102000    1.0006936    0.2048445  -0.28563805    1.2153273    2.3258464   0.20887218   0.20157784   0.20408349 
 9103000   0.99699283   0.20229379   -0.2869768    1.2084377    2.3051286    0.2017447   0.20144007   0.20369659 
 9104000   0.99715778   0.20194416  -0.28955377    1.2061081    2.3009037   0.19976241   0.20186272   0.20420735 
 9105000   0.99305785   0.20570682  -0.28535533     1.204157    2.3193509   0.20539692   0.20271693   0.20900661 
 9106000    1.0009663   0.20284617  -0.29070147    1.2106729    2.3103586   0.20344616   0.20312033   0.20197204 
 9107000     1.000957   0.20465476  -0.28742909    1.2139314    2.3234219   0.20213518   0.20631165   0.20551746 
 9108000    1.0060916   0.20296995  -0.29221524    1.2168466    2.3172032   0.20194065   0.20042032   0.20654887 
 9109000    1.0089727   0.20994586  -0.28561323    1.2277701    2.3659451   0.20897447   0.21057874   0.21028436 
 9110000    0.9967067    0.2056909  -0.28386018    1.2111251    2.3262328     0.210447   0.20223807   0.20438764 
 9111000    0.9937686   0.20228472  -0.28685994    1.2037184    2.3003602   0.20446202   0.20331034   0.19908178 
 9112000     0.992273   0.20789728  -0.28235467    1.2059804    2.3330494   0.21549126   0.20397102   0.20422955 
 9113000   0.99952513   0.20575015  -0.28766622    1.2115465    2.3269754   0.20437585   0.20973543   0.20313916 
 9114000    1.0022143   0.20253948   -0.2891451    1.2141012    2.3121242   0.20394755   0.20267393   0.20099698 
 9115000   0.99934545   0.20708349  -0.28333153    1.2156117     2.338269   0.20565348   0.21156293   0.20403405 
 9116000   0.99965914   0.20569003  -0.28624462    1.2131691     2.328272   0.20624918   0.20804201   0.20277889 
 9117000    1.0050051   0.20400529  -0.28820242    1.2192298    2.3251993    0.2008957   0.20745774   0.20366242 
 9118000    1.0134194   0.21010086  -0.28380733    1.2362458    2.3752611   0.20894479   0.21342655   0.20793125 
 9119000    1.0041234   0.20474392  -0.28507023    1.2210396    2.3310134   0.20327359   0.21116183   0.19979633 
 9120000    1.0005965   0.20638016  -0.28804631    1.2127734    2.3316177   0.20663292   0.20813117   0.20437639 
 9121000   0.99817123   0.20192199  -0.29123334    1.2059486     2.300624   0.20187995   0.20216118   0.20172485 
 9122000   0.99769884   0.20116165  -0.28988594    1.2065875    2.2971408   0.20110806   0.20162643   0.20075046 
 9123000   0.99577839   0.20460034   -0.2883406    1.2052523    2.3144477   0.20520592   0.20252387   0.20607122 
 9124000   0.99273731   0.20093754   -0.2913962    1.1976353    2.2869737   0.19856568   0.20124893     0.202998 
 9125000   0.99506014   0.20442207  -0.28605211    1.2064635    2.3146925   0.20363233   0.20506564   0.20456824 
 9126000    1.0026546     0.201708  -0.29092726    1.2129794    2.3064946   0.20140461   0.20278907   0.20093031 
 9127000    1.0051134   0.20877981  -0.28338771     1.224207    2.3560605   0.20699375   0.20685751   0.21248817 
 9128000    1.0131077   0.21200793  -0.28356657     1.236019     2.385373   0.21415253    0.2149043   0.20696695 
 9129000    1.0078887   0.21334427  -0.28117682    1.2305807    2.3871794   0.21322719   0.21251136   0.21429428 
 9130000    1.0044993   0.20485423  -0.28736156     1.219312    2.3298839   0.20034528   0.20794808   0.20626933 
 9131000    1.0014678   0.20517402  -0.28713547    1.2149911    2.3272966   0.20386043   0.20783988   0.20382177 
 9132000   0.99858417   0.20292448  -0.28859993    1.2092014    2.3093115   0.20072381   0.20397241   0.20407722 
 9133000   0.99598285   0.20270143  -0.28832023    1.2055794    2.3044803   0.19907087   0.20682733    0.2022061 
 9134000   0.99058036   0.20214332  -0.28686533    1.1989309    2.2948062   0.20040982   0.20564489   0.20037525 
 9135000   0.98743212   0.20171125  -0.28970046    1.1913737    2.2849065   0.20557769   0.19863311   0.20092296 
 9136000   0.99871974   0.20374515  -0.28604892    1.2119558     2.316515   0.20257761     0.205537   0.20312086 
 9137000     1.002029   0.20685113  -0.28622755    1.2167408    2.3381383     0.205665    0.2066423   0.20824608 
 9138000    1.0031299   0.20814175  -0.28487713    1.2197424    2.3481368   0.20675548   0.20915547    0.2085143 
 9139000    1.0031749    0.2074617  -0.28696841    1.2177187    2.3424263   0.21122596   0.20229733    0.2088618 
 9140000    1.0049511   0.20830775   -0.2833882     1.223963    2.3532574   0.20876464   0.20729674   0.20886187 
 9141000   0.99941258   0.20732499  -0.28320044    1.2158435      2.33981   0.20822862   0.20535048   0.20839589 
 9142000    1.0041613   0.20906277  -0.28457682    1.2215898    2.3549773    0.2093202   0.20417698   0.21369112 
 9143000    1.0043914   0.20396941  -0.28815776    1.2183541     2.324129   0.21166667   0.20161321   0.19862835 
 9144000    1.0041046   0.20763087  -0.28553461    1.2205469    2.3461717   0.20706823   0.20659867   0.20922573 
 9145000   0.99303397    0.2048306  -0.28589056    1.2035859    2.3140296   0.20488688   0.20028469   0.20932022 
 9146000      0.99778   0.20383813   -0.2879502     1.208645    2.3137082   0.20638436    0.2013971   0.20373292 
 9147000   0.99185112   0.20385359  -0.28604264    1.2016596    2.3068068   0.20519503    0.1986774   0.20768836 
 9148000   0.99924961   0.20585783  -0.28757685    1.2112226    2.3272352   0.20519413   0.20949801   0.20288134 
 9149000   0.99461417   0.20392317  -0.28578205    1.2060646    2.3115889   0.20175133   0.20511243   0.20490575 
 9150000   0.99840534   0.20608099  -0.28566391    1.2118692    2.3290917   0.20903593   0.20667795   0.20252909 
 9151000    1.0114978   0.20617682   -0.2877516    1.2294192    2.3471611   0.20976268   0.20574534   0.20302243 
 9152000    1.0139674   0.20688298  -0.28584586    1.2350291    2.3565994   0.20649738   0.20834675   0.20580481 
 9153000     1.000845   0.20787173  -0.28326596    1.2179265    2.3448571   0.20728049   0.20530876   0.21102595 
 9154000   0.99920815   0.20420505  -0.28665864    1.2120787    2.3191311   0.20641284   0.20435585   0.20184645 
 9155000    0.9971425    0.2036013  -0.28995266    1.2056863    2.3094657   0.20822318   0.19747857   0.20510215 
 9156000   0.99314144   0.19872833  -0.28957755    1.2000601    2.2774217   0.20136899    0.2000729    0.1947431 
 9157000   0.99702218   0.20389994  -0.28617787    1.2092806     2.314679   0.20041466   0.20245626    0.2088289 
 9158000    0.9985752   0.20549157  -0.28776497    1.2100229      2.32405   0.20707259   0.20216154   0.20724059 
 9159000   0.99472228   0.19976287  -0.29052706    1.2014818    2.2844519   0.20030655   0.19971233   0.19926973 
 9160000   0.99732765   0.20725395  -0.28564947    1.2102672    2.3338486   0.20936929   0.20919362   0.20319893 
 9161000   0.99827385   0.20257333  -0.28786965    1.2094663    2.3076727   0.20411726   0.20365325   0.19994947 
 9162000   0.99991737   0.20536921  -0.28679115    1.2130099    2.3263736   0.20283952   0.20624698   0.20702113 
 9163000    1.0139278   0.20660637  -0.28824427    1.2325714    2.3526421   0.20780464   0.20470367   0.20731082 
 9164000    1.0046555   0.20508359  -0.28509014    1.2218177     2.333633   0.20895126    0.2019408    0.2043587 
 9165000   0.99896103   0.20188125  -0.28958993    1.2087767    2.3032312   0.19818198   0.20298951   0.20447227 
 9166000   0.99498222   0.20416452  -0.28665761    1.2057411    2.3125738   0.20524598   0.20310271   0.20414485 
 9167000   0.99102485   0.20793129  -0.28439423    1.2020687    2.3293222   0.20974117   0.20408189   0.20997082 
 9168000    1.0041935   0.20436907  -0.28591291     1.220302    2.3282437   0.20613536   0.20283904    0.2041328 
 9169000    1.0099818   0.20146566  -0.29057928    1.2243177    2.3165191   0.20008828   0.20491704   0.19939167 
 9170000    1.0039896   0.20275215  -0.28670053    1.2192086    2.3183845    0.2043783    0.2016198   0.20225836 
 9171000     1.001393   0.20703112  -0.28513447    1.2168799    2.3392533    0.2078906   0.20503494   0.20816781 
 9172000    1.0088134   0.20915113  -0.28676696    1.2263774    2.3602439   0.20760825   0.21424573    0.2055994 
 9173000    1.0026879    0.2073824  -0.28620352    1.2177531    2.3420309   0.20694552   0.21162592   0.20357576 
 9174000    1.0007026   0.20313143  -0.28667521    1.2143036    2.3155356   0.20564884   0.19768491   0.20606053 
 9175000   0.99895528   0.20218814  -0.28834471    1.2100133    2.3061315   0.20394928   0.20228303   0.20033209 
 9176000   0.98662752   0.20051883  -0.28766874    1.1921985     2.279267   0.20330362   0.19715399   0.20109886 
 9177000   0.99238172   0.20442493  -0.28468617     1.203812    2.3120565   0.20619809   0.20359951   0.20347721 
 9178000    1.0026548   0.20677412  -0.28840158    1.2155054    2.3364855   0.20447425   0.20819878   0.20764933 
 9179000    1.0045604   0.20677467  -0.28661046    1.2201548    2.3411379   0.20955064   0.20409113   0.20668223 
 9180000    1.0037529   0.20655167    -0.288992    1.2165621    2.3363362   0.20516526   0.20622923   0.20826052 
 9181000    1.0051462   0.20380821   -0.2897243    1.2179196    2.3228207   0.20055891   0.20661304   0.20425268 
 9182000    1.0026898    0.2007237  -0.28987149     1.214088    2.3022671   0.20055891    0.1996528   0.20195938 
 9183000    1.0072206    0.2074221  -0.28685527       1.2239     2.348393   0.20602508   0.20843614   0.20780508 
 9184000    1.0042485   0.20700945   -0.2869611    1.2193363    2.3415922   0.20867687   0.20269891   0.20965257 
 9185000    1.0029538   0.20408682  -0.28677891    1.2175765     2.323988   0.20010357   0.20321843   0.20893845 
 9186000   0.99527188   0.20197947  -0.28912756    1.2037056    2.2986926   0.20206477   0.20222379   0.20164985 
 9187000   0.99402405   0.20741658  -0.28288919    1.2080723    2.3325354   0.20591799   0.21199439   0.20433736 
 9188000    1.0001425   0.20572997  -0.28619782     1.213941    2.3292604   0.20448861   0.21195384   0.20074747 
 9189000    1.0031945   0.20682161  -0.28595455     1.218762    2.3399995   0.20445054   0.20852577   0.20748852 
 9190000    1.0067614   0.20734797  -0.28798566     1.222081    2.3461721   0.20507848   0.21064235   0.20632308 
 9191000    0.9997314   0.20324214   -0.2879822    1.2115399    2.3133722   0.20189079   0.20194119   0.20589445 
 9192000   0.99952348    0.2029804  -0.28819003    1.2110202    2.3114335   0.20392555   0.19995696    0.2050587 
 9193000   0.99664967   0.20420552  -0.28659271     1.208307     2.315362   0.20418672   0.20542224    0.2030076 
 9194000   0.99684464   0.20356847  -0.28861426    1.2065779    2.3101793   0.20418933   0.20445591   0.20206018 
 9195000   0.99950356    0.2033806  -0.28663729    1.2125431     2.315126   0.20292578    0.2025188   0.20469722 
 9196000    1.0115874   0.20461268  -0.29020025     1.227105    2.3363674   0.20318034   0.20361003   0.20704768 
 9197000    1.0039954   0.20294349  -0.28814036    1.2177774    2.3179906   0.20224924   0.20184857   0.20473268 
 9198000    1.0070701   0.20786246   -0.2877704    1.2227591    2.3496394   0.20671273   0.20844269   0.20843197 
 9199000    1.0125715    0.2076624   -0.2877105    1.2310708    2.3568665   0.20805168   0.20907102   0.20586449 
 9200000   0.99738121   0.20650399   -0.2850436    1.2109534    2.3304691   0.20531312    0.2070689   0.20712994 
 9201000   0.99889437   0.20422564  -0.28639978    1.2118669    2.3190309   0.20418641   0.20295046   0.20554006 
 9202000   0.99731543   0.20124602   -0.2873795    1.2085189    2.2995296   0.20220258   0.19847582   0.20305967 
 9203000   0.99687856   0.20400652   -0.2893346    1.2059085    2.3118846   0.21300008   0.19779857   0.20122091 
 9204000   0.99278226   0.20244891  -0.28693472    1.2021642    2.2996962   0.19880936   0.20401339   0.20452399 
 9205000   0.99795727    0.2042602  -0.28889582    1.2079652    2.3153167   0.21041802   0.19654431   0.20581829 
 9206000   0.99540306   0.20147159  -0.28929844    1.2037315    2.2959651   0.20568921    0.1995749   0.19915068 
 9207000   0.99634106   0.20364939  -0.28642409    1.2080128    2.3120528   0.20260021   0.20518496     0.203163 
 9208000   0.99006447    0.1993147  -0.29270896    1.1923135     2.272854   0.20032435   0.19918829   0.19843145 
 9209000   0.99290035   0.20292347  -0.28902337    1.2002527    2.3003573   0.20319617   0.20112815    0.2044461 
 9210000   0.99937248   0.20194125  -0.28984773     1.209136    2.3039158    0.2033382   0.19858779   0.20389776 
 9211000    1.0026563   0.20551689   -0.2853037    1.2186055    2.3327698   0.20943535   0.20263976   0.20447556 
 9212000    1.0038352   0.21034796  -0.28379834    1.2218792    2.3622341   0.20643756   0.20899304   0.21561328 
 9213000    1.0064958   0.20674637  -0.28675979    1.2229084     2.343738   0.20772155   0.20603179   0.20648575 
 9214000   0.99892249   0.20543283  -0.28492422    1.2133846    2.3270932   0.20681724   0.20425668   0.20522456 
 9215000    1.0055627   0.20329219  -0.29037149    1.2178971    2.3200007   0.20317187   0.20204483   0.20465987 
 9216000    1.0060479   0.20298921  -0.28847671    1.2205197    2.3209808   0.20480448   0.20384034   0.20032283 
 9217000    1.0095432   0.20711526  -0.28746491    1.2267742    2.3496037   0.20976696   0.20495302    0.2066258 
 9218000   0.99523745   0.20501471  -0.28942465    1.2033569    2.3147987   0.20246093   0.20353249   0.20905072 
 9219000   0.99673607    0.2049858  -0.28957392    1.2054554    2.3167405   0.20593889   0.20622433   0.20279418 
 9220000   0.99536474   0.20771893  -0.28535422    1.2076182    2.3337204   0.21504847   0.20258558   0.20552272 
 9221000   0.99683278   0.20460488  -0.28641458    1.2087598    2.3179799   0.20808175   0.19852573   0.20720715 
 9222000   0.99954155     0.203757  -0.28583477    1.2134026     2.318026   0.20639182   0.20376256   0.20111662 
 9223000    1.0042007   0.20844453  -0.28429094    1.2219347    2.3519706   0.20779693   0.21051362   0.20702305 
 9224000    1.0110998   0.20796435  -0.28590002    1.2306739    2.3581066   0.21162343   0.20440351   0.20786611 
 9225000    1.0131807   0.20536978  -0.28564704     1.234048    2.3474148   0.19988905   0.20614678   0.21007351 
 9226000    1.0076324   0.20474461  -0.28688416    1.2244889    2.3344665   0.20353809   0.20526909   0.20542665 
 9227000    1.0031176   0.20280132  -0.29049473    1.2141064    2.3135489   0.20112096   0.20482465   0.20245836 
 9228000   0.99443198   0.20468895  -0.28704997    1.2045234    2.3141992   0.20248312   0.20826988   0.20331384 
 9229000    0.9974523   0.20874157  -0.28364203    1.2124616    2.3441078   0.20700468   0.20760971   0.21161033 
 9230000   0.99301234   0.20173491  -0.28840907     1.201035    2.2946961   0.20543148   0.20216198   0.19761126 
 9231000   0.99967883   0.20397661  -0.28680965    1.2126336    2.3184477   0.20139782   0.20385792    0.2066741 
 9232000    1.0009514   0.20806121  -0.28346603     1.217886    2.3458437   0.20562546   0.20842524   0.21013292 
 9233000    1.0037911   0.20452898  -0.28785115    1.2177603    2.3265689   0.19880599   0.20502779   0.20975316 
 9234000    1.0003275   0.20808503   -0.2839355    1.2164808    2.3445677   0.20856548   0.20668424   0.20900537 
 9235000    1.0018836   0.20671361  -0.28284027    1.2199101    2.3405621   0.21194508   0.20519535   0.20300039 
 9236000    1.0013616   0.20265968    -0.287235    1.2147324    2.3134069   0.19998219    0.2041258   0.20387104 
 9237000   0.99718313   0.20545472  -0.28545674    1.2102432    2.3240704   0.20805371   0.20481699   0.20349345 
 9238000   0.98464213   0.20038154  -0.28850052    1.1883888     2.274713    0.1998777   0.19906642    0.2022005 
 9239000   0.99016417   0.20529781  -0.28655789    1.1986141    2.3115907     0.204654   0.20956094    0.2016785 
 9240000    1.0008914   0.20239874  -0.29269051    1.2085715    2.3058314   0.20075552   0.20061478   0.20582593 
 9241000   0.99789584   0.20392947  -0.29079847    1.2059705    2.3115289   0.21076371   0.19976523   0.20125946 
 9242000   0.99867435   0.20277997  -0.28600168    1.2119349    2.3112617   0.20507112   0.20103427   0.20223453 
 9243000    1.0151199   0.20661628  -0.28741309    1.2351907    2.3553151    0.2056863   0.20623599   0.20792655 
 9244000    1.0091779   0.20584569  -0.28640406    1.2272872     2.343234   0.20873445   0.20302629   0.20577634 
 9245000   0.99723553   0.20732488  -0.28419781    1.2115807    2.3355466   0.20735176   0.21167066    0.2029522 
 9246000    1.0024793   0.20673957  -0.28501361    1.2186301    2.3394229   0.20824464   0.20954366   0.20243039 
 9247000    1.0002539   0.20702656   -0.2851784    1.2151274    2.3374761    0.2060909   0.20594056   0.20904822 
 9248000   0.99964849   0.20253995  -0.28844677     1.210951    2.3089765   0.20543231   0.19994492   0.20224263 
 9249000   0.98849215   0.20305704  -0.28478989    1.1978742     2.298703   0.20309641   0.20449825   0.20157647 
 9250000   0.99654183    0.2089345  -0.28355722    1.2111808    2.3438729    0.2045328   0.21029022   0.21198047 
 9251000    1.0003367   0.20727896  -0.28478687    1.2156432    2.3393602   0.20809991   0.20693302   0.20680393 
 9252000   0.99905748   0.20372763  -0.28656895    1.2119423    2.3164065   0.20199492   0.20261578   0.20657219 
 9253000    1.0092588   0.20388645   -0.2870628    1.2267496    2.3320749    0.1991189    0.2060884   0.20645206 
 9254000    1.0136594   0.20867865  -0.28508331    1.2353298    2.3666349   0.20668283   0.21054624   0.20880687 
 9255000    1.0060475    0.2075403  -0.28750973     1.221486    2.3466198    0.2095095   0.20476586   0.20834555 
 9256000   0.99941673   0.20387547  -0.28725465    1.2117955    2.3170612   0.20843779   0.19748389   0.20570473 
 9257000   0.99935013   0.20668408   -0.2859794    1.2129708    2.3334628   0.20649852   0.20680175   0.20675197 
 9258000    1.0029213   0.20517416   -0.2874854    1.2168213    2.3291276   0.20632813    0.2011611   0.20803327 
 9259000   0.99519095   0.20567108  -0.28483629    1.2078755    2.3228757   0.20684692   0.20304602   0.20712029 
 9260000    1.0000349   0.20110148  -0.29161428    1.2083631    2.2985902   0.20651909   0.19984463   0.19694072 
 9261000   0.99492895   0.20235803   -0.2907357    1.2015831    2.2986223   0.20332293   0.20220215   0.20154901 
 9262000    0.9971128   0.20632886  -0.28315419    1.2124402    2.3310064   0.20351451   0.20854585   0.20692621 
 9263000   0.99092158    0.2081735   -0.2822622    1.2040458    2.3326124   0.20730217   0.20559033     0.211628 
 9264000   0.99899643   0.20505111    -0.286087    1.2123327    2.3239719   0.20312378   0.20894139   0.20308816 
 9265000   0.99278341   0.20345941  -0.28859568     1.200505    2.3035151   0.20003401   0.20422368   0.20612054 
 9266000   0.99854089   0.20700864  -0.28552622    1.2122102    2.3344617   0.20320796   0.20862794   0.20919003 
 9267000    0.9986818   0.20454198  -0.28513481     1.212813     2.321692   0.20217267   0.20639176   0.20506151 
 9268000    1.0014709   0.20509926  -0.28402251    1.2181087     2.330009   0.20780111   0.20341248    0.2040842 
 9269000    1.0024151   0.20597553  -0.28689532    1.2166522    2.3333029   0.20792683   0.20274172   0.20725805 
 9270000    1.0050081    0.2072171  -0.28640388     1.221033    2.3444146   0.20641071   0.20491791   0.21032269 
 9271000    1.0070083   0.20619479  -0.28611165    1.2243252    2.3421646   0.20620573   0.20415912   0.20821951 
 9272000   0.99204415   0.20111668  -0.28614302    1.2018488    2.2921583   0.20490602   0.20173351   0.19671051 
 9273000    1.0018386   0.20706172  -0.28637992    1.2163029    2.3388421   0.20743814     0.205726   0.20802101 
 9274000   0.99884857   0.20428854  -0.28805675    1.2101412    2.3176463   0.20393061   0.20607415   0.20286087 
 9275000   0.99934791   0.20497029   -0.2868883    1.2120586    2.3232596   0.21067173   0.19931147   0.20492766 
 9276000   0.99816005   0.20074476   -0.2915262     1.205639    2.2939323   0.20074684   0.20118487   0.20030258 
 9277000   0.99799371   0.20245669  -0.28664639    1.2102693    2.3078435   0.20077737   0.20418233   0.20241038 
 9278000   0.99769818    0.2031703  -0.28836619    1.2081062     2.309549   0.20410644   0.20294816    0.2024563 
 9279000    1.0007597   0.20496067  -0.28945752     1.211607    2.3227559   0.20859287   0.20564747   0.20064166 
 9280000   0.99670722   0.20284966  -0.28653322    1.2084529    2.3081573   0.20379202   0.20403621   0.20072074 
 9281000    1.0045088   0.20530824  -0.28771704    1.2189708     2.332004   0.20810545   0.20756124   0.20025803 
 9282000    1.0021637   0.20510355  -0.29001091    1.2131595     2.325083   0.20538958   0.20698464   0.20293644 
 9283000    1.0074269   0.20453546  -0.28902196    1.2220429    2.3308866   0.20832831   0.20306491   0.20221317 
 9284000    1.0020633    0.2080916  -0.28350267    1.2195171    2.3476396   0.20970833   0.20609818   0.20846828 
 9285000     1.003641   0.20883418  -0.28520825    1.2201779    2.3523262   0.20795459   0.20838343   0.21016452 
 9286000    1.0012149   0.20649543  -0.28468555    1.2170618     2.336531   0.20680922   0.20824139   0.20443567 
 9287000    1.0067109    0.2027713  -0.28853328    1.2214575    2.3207373    0.2021245   0.20433921    0.2018502 
 9288000    1.0014328   0.20466237  -0.28763089    1.2144431    2.3239748   0.20376408   0.20593677   0.20428625 
 9289000   0.99860423   0.20792798  -0.28449975    1.2133317    2.3405672   0.20500454   0.21217351   0.20660589 
 9290000    0.9987315   0.20604283  -0.28504146    1.2129809    2.3299964   0.20976273   0.20094305   0.20742271 
 9291000      0.99219   0.20226421  -0.28584396    1.2023666    2.2988973   0.19933117   0.20161785   0.20584362 
 9292000   0.98422567   0.20182584  -0.28688804    1.1893766    2.2835307   0.20301366    0.2030563   0.19940757 
 9293000   0.99293269   0.20056134  -0.28881076    1.2005138    2.2878127   0.20305403   0.20097122   0.19765879 
 9294000   0.99561657    0.2078835  -0.28515022       1.2082    2.3351943   0.20884556   0.20419012   0.21061484 
 9295000   0.99913144   0.21020974  -0.28166926     1.216953    2.3565585   0.20895649   0.21178926   0.20988346 
 9296000    1.0045791   0.20788901  -0.28432924    1.2224641    2.3494883   0.21117735   0.20790606   0.20458362 
 9297000   0.99306063   0.20467622  -0.28560534    1.2039111    2.3135179   0.20473791   0.20771445   0.20157629 
 9298000   0.99422327   0.20569646  -0.28622983    1.2050305    2.3201683   0.20413028   0.20403769    0.2089214 
 9299000   0.99290746   0.20382807  -0.28452279    1.2047639    2.3097727   0.19742857   0.20325403   0.21080161 
 9300000    1.0003874   0.20235546  -0.28854076    1.2119653    2.3089906   0.20578733   0.20033798   0.20094106 
 9301000    1.0109034   0.20768204  -0.28834536    1.2279339    2.3538361   0.20783999   0.20970914     0.205497 
 9302000    1.0044056   0.20424007  -0.28577267    1.2207604    2.3280027   0.20072642   0.20730598   0.20468783 
 9303000    1.0012814   0.20513298  -0.28793895     1.213908     2.325991   0.20137526   0.20883027    0.2051934 
 9304000    1.0010417   0.20223464  -0.29004733    1.2114402    2.3078105   0.20063023   0.19983072   0.20624297 
 9305000   0.99847558   0.20618023  -0.28450829    1.2131302    2.3308906   0.19929141   0.20863018    0.2106191 
 9306000    1.0021392   0.20663646  -0.28609133    1.2170423    2.3372761   0.20636001   0.20468702   0.20886234 
 9307000   0.99948302   0.20149353  -0.28946497    1.2096846    2.3020372   0.20218505   0.20439074   0.19790482 
 9308000   0.99156521   0.20041545   -0.2886388    1.1986346    2.2851426   0.19868643   0.19921104   0.20334887 
 9309000    1.0000782   0.20404845  -0.28504307    1.2149992    2.3212027   0.20335832   0.20440055    0.2043865 
 9310000    1.0067564   0.20577745  -0.28783427    1.2222248    2.3378016   0.20623833   0.20717604   0.20391796 
 9311000    1.0039522   0.20161961   -0.2897622    1.2160908    2.3091269   0.20067216   0.20435795   0.19982873 
 9312000    1.0039697   0.20877243  -0.28146864    1.2244107    2.3562242   0.20567188   0.20806412    0.2125813 
 9313000    1.0019243   0.20483006  -0.28790353    1.2149078    2.3253486   0.20666693   0.20667669   0.20114656 
 9314000    1.0007321   0.20245448  -0.28947909    1.2115441    2.3091062    0.2060895   0.20088926   0.20038469 
 9315000   0.99217712   0.20379834  -0.28618106    1.2020102    2.3068577   0.20066436   0.20843761   0.20229304 
 9316000   0.99547962   0.20615732  -0.28427011    1.2088747    2.3265109    0.2029476   0.20710161   0.20842276 
 9317000   0.99651916   0.20260029  -0.28728522    1.2074188    2.3057714   0.19749986   0.20463482   0.20566619 
 9318000    1.0001985   0.20819299  -0.28611944    1.2141033    2.3427755   0.20752886   0.21041146   0.20663864 
 9319000    1.0041332   0.20460407     -0.28737    1.2187544    2.3279701   0.20599464   0.20353829   0.20427929 
 9320000    1.0116976    0.2074813  -0.28740324    1.2300673    2.3548813   0.21348925   0.20525141   0.20370324 
 9321000    1.0092415   0.20957307  -0.28542459    1.2283619    2.3645159   0.21207694   0.20901567   0.20762659 
 9322000    1.0036359   0.20560282  -0.28895792    1.2164206    2.3310508   0.20552533   0.20620775   0.20507539 
 9323000    0.9966781   0.20450469  -0.28644216    1.2085002    2.3171771   0.20004871    0.2114035   0.20206185 
 9324000   0.99790518   0.20127814  -0.28749315    1.2092898    2.3004747   0.19876571   0.20311763   0.20195109 
 9325000   0.99663329   0.20314313   -0.2892395    1.2056357    2.3069312   0.20466454   0.20497427   0.19979057 
 9326000   0.99334892   0.20198224  -0.28859055    1.2013583    2.2963603    0.1993968   0.20727197   0.19927795 
 9327000     1.001287   0.20557905  -0.28753976    1.2143156    2.3288169   0.20197745   0.20988254   0.20487715 
 9328000    1.0079014   0.20491239  -0.28884482    1.2229317    2.3338188   0.20406501   0.20297979   0.20769236 
 9329000    1.0017824   0.20510653  -0.28520491    1.2173935    2.3293331    0.2048759     0.208074    0.2023697 
 9330000    1.0015458   0.20862365   -0.2822508    1.2199928    2.3509997   0.20773079   0.20899196   0.20914819 
 9331000    1.0015679   0.20590114  -0.28608211    1.2161946     2.332442   0.20548409    0.2073276   0.20489173 
 9332000   0.99857835   0.20216574  -0.28915906    1.2086336    2.3046304   0.20189034     0.203888   0.20071888 
 9333000   0.98900657   0.20096843  -0.28991275    1.1935229    2.2830287   0.20205481   0.20580314   0.19504734 
 9334000    0.9909154   0.20209775  -0.28742039    1.1988784    2.2945066   0.20006208   0.20213236   0.20409881 
 9335000   0.99438307   0.20359506  -0.28707701     1.204423    2.3081685   0.20600358   0.20261265   0.20216895 
 9336000   0.99451195   0.20616324   -0.2847075    1.2069858    2.3246542   0.20876266   0.20990093   0.19982612 
 9337000   0.99869862   0.20570719  -0.28519062    1.2127824    2.3279783   0.20740484   0.20512102    0.2045957 
 9338000    1.0061325   0.20974988  -0.28333059    1.2257927    2.3629052   0.20743219    0.2072825   0.21453494 
 9339000    1.0066659    0.2043923  -0.28917915    1.2207442    2.3288118   0.20543788   0.20347262   0.20426639 
 9340000    1.0021578   0.20546658  -0.28615595    1.2170056    2.3308972   0.20099337   0.20606673   0.20933964 
 9341000     1.000994   0.20401814  -0.28778295     1.213633    2.3196722   0.20887675   0.19806967   0.20510801 
 9342000   0.99461593   0.20064105  -0.28956393    1.2022854    2.2900164   0.19970505   0.19737323   0.20484486 
 9343000   0.99188394   0.20801849  -0.28377861    1.2039729    2.3316991   0.20775594   0.20889282   0.20740671 
 9344000   0.99229083    0.1997855  -0.28956829    1.1987935    2.2818864   0.19668347   0.19932909   0.20334396 
 9345000    1.0041153   0.20576824   -0.2869378    1.2191598    2.3346868   0.20663401   0.20299869   0.20767202 
 9346000     1.004037   0.20457134  -0.28897934    1.2170008     2.326039   0.20742341   0.20656351   0.19972711 
 9347000    1.0085482   0.20935155  -0.28592188    1.2268248    2.3617779   0.20906468   0.20799794   0.21099203 
 9348000    1.0019205   0.20600098  -0.28540775    1.2173979    2.3341866   0.20502518    0.2062296   0.20674816 
 9349000   0.99765369   0.20649388  -0.28786624    1.2085395    2.3280003   0.20831415   0.20171359   0.20945391 
 9350000    1.0013584   0.20080828  -0.28809937    1.2138631    2.3025007   0.20249186   0.19877679   0.20115619 
 9351000   0.99185668   0.20015537  -0.28779073    1.1999199    2.2850179   0.20366012   0.19880988   0.19799612 
 9352000   0.98285684   0.20025704  -0.28961961    1.1845919    2.2702411   0.19744266   0.20256396   0.20076452 
 9353000   0.99611388   0.20318939  -0.28713007     1.206966    2.3085123    0.2039627   0.20225546   0.20335002 
 9354000    1.0008273   0.20691683  -0.28436028    1.2168056    2.3385593     0.206496     0.208655   0.20559948 
 9355000    0.9992484   0.20724325  -0.28325328    1.2155444    2.3390678   0.21041537   0.20511531   0.20619908 
 9356000    1.0062101   0.20426709  -0.28861418    1.2206256    2.3280143   0.19701475   0.20486606   0.21092045 
 9357000    1.0029141   0.20220304   -0.2894491    1.2148468    2.3110457   0.19716532    0.2103204   0.19912339 
 9358000    1.0050416   0.20593082  -0.28404082    1.2234462    2.3398545   0.20662099   0.20927174   0.20189973 
 9359000    1.0028059   0.20726332  -0.28684444    1.2172892    2.3409213   0.20095049   0.20614951   0.21468996 
 9360000   0.99637804   0.20384197  -0.28966778    1.2048246    2.3099087   0.20707968   0.20697227   0.19747397 
 9361000   0.99477486   0.20156241  -0.28776201    1.2043257    2.2970516   0.20445294   0.20137067   0.19886361 
 9362000   0.99503672   0.20710864  -0.28673116    1.2057493    2.3285429   0.20934159   0.20764819   0.20433614 
 9363000   0.99827226   0.20777195   -0.2852158    1.2121177    2.3385073   0.20930381   0.20622525   0.20778679 
 9364000    1.0026247   0.20954166  -0.28236317    1.2214987    2.3574824   0.21079545   0.21004039   0.20778914 
 9365000    1.0145635   0.20366601  -0.28928247    1.2324867    2.3366168   0.20144934   0.20694292   0.20260578 
 9366000    1.0037124   0.20147867  -0.28890424     1.216589     2.308861   0.20261178   0.19838466   0.20343957 
 9367000   0.99861298   0.20285381  -0.28859771    1.2092469    2.3089739   0.19958615    0.2054114   0.20356388 
 9368000   0.99739484   0.20317633  -0.28838934    1.2076281    2.3091036   0.20256397   0.20487275   0.20209227 
 9369000   0.99339684   0.20416561  -0.28730018    1.2027206    2.3095592   0.20454334   0.20738151   0.20057199 
 9370000   0.99965685   0.20308527  -0.28792355    1.2114868    2.3124686   0.20530588   0.20228774   0.20166219 
 9371000    1.0073354   0.20913907  -0.28498904    1.2259386    2.3597397   0.20814976   0.21354099   0.20572646 
 9372000    1.0062866   0.20283915  -0.28975203    1.2196024    2.3192499   0.20340102   0.20394986   0.20116657 
 9373000    1.0039558   0.20428923  -0.28977917    1.2160792     2.323588   0.20641091   0.20341153   0.20304526 
 9374000    1.0008095   0.20138224  -0.29079298    1.2103463    2.3020955   0.20134221   0.20232323   0.20048128 
 9375000   0.99017285   0.20274298  -0.28745326    1.1977318    2.2968579   0.20212395   0.20571523   0.20038976 
 9376000   0.99925204   0.20375189  -0.28758309      1.21122    2.3158158    0.2007258   0.20665837    0.2038715 
 9377000   0.99728518   0.20400867  -0.28658796     1.209265    2.3152528   0.20128009   0.20792848   0.20281745 
 9378000    1.0029167   0.20523004  -0.28840072    1.2158992    2.3285084   0.20337868   0.20567631   0.20663514 
 9379000    1.0020578   0.20558277  -0.28568679    1.2173248    2.3318463   0.20437748   0.20902304    0.2033478 
 9380000    1.0092514   0.20656929   -0.2846747    1.2291267    2.3489964   0.20528045   0.20447251   0.20995492 
 9381000    1.0040143   0.20626456  -0.28548833    1.2204578    2.3386755   0.20621317   0.20771054   0.20486996 
 9382000    1.0090336   0.20304383  -0.28874056    1.2247341    2.3254913   0.20278041   0.20088086   0.20547022 
 9383000    1.0032196   0.20510148  -0.28468654    1.2200676    2.3319798   0.20687612   0.20299203   0.20543631 
 9384000     1.003132   0.20491801   -0.2852766    1.2193461    2.3302637   0.20598182   0.20482221   0.20394999 
 9385000    1.0008911   0.20427058  -0.28552722    1.2157344    2.3231421   0.20314358   0.20399021   0.20567795 
 9386000   0.99505876    0.2030292  -0.28618214    1.2063314    2.3070092   0.19915612   0.20163745   0.20829403 
 9387000   0.99846136   0.20560991  -0.28539895    1.2122182    2.3268868   0.20538625   0.20626081   0.20518267 
 9388000     1.001144   0.20337018  -0.28789003    1.2137509    2.3162773   0.20332178   0.20333519   0.20345357 
 9389000    1.0007835   0.20343799  -0.29020302    1.2108972    2.3137912   0.20479954   0.20465434   0.20086011 
 9390000   0.98789784   0.20436509  -0.28488632    1.1968863    2.3048064   0.20308563   0.20129078   0.20871885 
 9391000   0.99523756   0.20222286  -0.28899399    1.2037877    2.3000941   0.20012967   0.20536096   0.20117795 
 9392000   0.99694355   0.20752323  -0.28371182    1.2116287    2.3366699    0.2102448   0.20581637   0.20650852 
 9393000    1.0021267   0.20473244  -0.28422702    1.2188879    2.3287995   0.20233308   0.20784905   0.20401521 
 9394000    1.0117185   0.20684567  -0.28588886     1.231613     2.352981   0.20985655   0.20389657   0.20678391 
 9395000    1.0100045   0.20776283  -0.28562305     1.229308    2.3556482   0.20895096   0.21002156   0.20431596 
 9396000    1.0062909   0.20446457  -0.28703553    1.2223254    2.3307847   0.20489249   0.20795128   0.20054993 
 9397000   0.99838877   0.20379568  -0.28656138    1.2109469      2.31578   0.19935163   0.20506311    0.2069723 
 9398000   0.99680735   0.20109319  -0.29187031     1.203266    2.2934482   0.19832766   0.20239988   0.20255203 
 9399000   0.99887532   0.20584167  -0.28759379    1.2106443    2.3265693   0.20221066   0.20652718   0.20878717 
 9400000   0.99387675   0.20311333  -0.28632909    1.2044115    2.3055454    0.2052739   0.19911001   0.20495608 
 9401000   0.99818176   0.20590761  -0.28661876     1.210579    2.3268615    0.2086997   0.20460626   0.20441688 
 9402000    0.9925091   0.20487195  -0.28677692    1.2019123    2.3125802   0.20516743   0.20299899   0.20644942 
 9403000    1.0003414   0.20532614  -0.29022299    1.2102141    2.3233443   0.20581172   0.20495925   0.20520746 
 9404000   0.99533197   0.20521978  -0.28595271    1.2069706    2.3195242    0.2044384   0.20918102   0.20203993 
 9405000     1.002669   0.20455786  -0.28838309    1.2155453    2.3245104   0.20620961   0.20535799   0.20210598 
 9406000    1.0037616   0.20701788  -0.28441927    1.2211478    2.3434494   0.20545453   0.20820997   0.20738915 
 9407000    1.0021683   0.20775951  -0.28231444    1.2208629     2.347185   0.21288567   0.20385849   0.20653438 
 9408000    1.0026523   0.20624784  -0.28665398    1.2172493    2.3353763   0.20939715   0.20430828   0.20503809 
 9409000   0.99872201   0.20480497  -0.28565713     1.212351    2.3226558   0.21019368   0.20178426   0.20243698 
 9410000   0.99491023   0.20911657  -0.28190721    1.2103835    2.3440627   0.20667112   0.20661815   0.21406043 
 9411000   0.99024066   0.20159059  -0.28711102    1.1981757    2.2910545   0.20659619    0.2021904   0.19598519 
 9412000   0.99359719   0.20064137  -0.28767757    1.2026437    2.2903764   0.20099726   0.19976462   0.20116222 
 9413000   0.99552816   0.20490413  -0.28671481    1.2065028    2.3173451   0.20783323   0.20135704   0.20552212 
 9414000    1.0053665   0.20403423  -0.28715021    1.2208241    2.3269505   0.20446544   0.20087046   0.20676678 
 9415000    1.0112434   0.20619716  -0.28727106    1.2295181    2.3473704   0.20657232   0.20507334   0.20694582 
 9416000     1.013442   0.20503454  -0.28507754    1.2350095    2.3465588   0.20882355    0.2027114   0.20356868 
 9417000   0.99868481   0.20260813  -0.28670136     1.211251     2.309646   0.20213301   0.19986589   0.20582547 
 9418000   0.99880255   0.20624213  -0.28638385    1.2117451    2.3298411   0.20173985   0.20918471   0.20780182 
 9419000   0.99905541   0.20156767  -0.29024821      1.20826    2.3010145   0.20223177   0.20678457   0.19568668 
 9420000   0.99715673   0.20353824  -0.28758293    1.2080774    2.3115149   0.20167167   0.20238158   0.20656147 
 9421000   0.99134434   0.20565689  -0.28651249    1.2004297    2.3153529   0.20791531   0.20564607   0.20340928 
 9422000   0.99212104   0.20156075  -0.28826656    1.1998406    2.2925576   0.20312635   0.20004765   0.20150825 
 9423000    1.0060607   0.20536507  -0.29115599    1.2178596    2.3312009   0.20563987   0.20998496   0.20047039 
 9424000     1.003787   0.20536652   -0.2871209    1.2184844    2.3318335   0.20295672   0.20434357   0.20879927 
 9425000    1.0023655   0.20556523  -0.28807722    1.2153958    2.3298222   0.20362546   0.20892089   0.20414935 
 9426000   0.99990075   0.20285358  -0.28707575    1.2127004    2.3124261   0.20319311   0.20294647   0.20242116 
 9427000   0.99207343    0.2017514  -0.28809006    1.1999457    2.2936962   0.20294038   0.19857726   0.20373656 
 9428000   0.99657211   0.20239414  -0.28869147     1.206092    2.3033269   0.20173318   0.20411429   0.20133494 
 9429000   0.99634794    0.2015794  -0.28895601    1.2054912    2.2983093   0.20015479   0.19888752    0.2056959 
 9430000   0.99028683   0.19921068  -0.28974733    1.1956086    2.2755852   0.19569744   0.20156084   0.20037377 
 9431000   0.99522405   0.20434312  -0.28667078    1.2060907    2.3138916   0.20285384   0.20456622   0.20560928 
 9432000     1.000895   0.20359736  -0.28857489    1.2126925    2.3164505   0.20123827   0.20829546   0.20125835 
 9433000    1.0018869   0.20786883  -0.28437818    1.2183771    2.3452919    0.2025829   0.21240525   0.20861835 
 9434000     1.001898   0.20605115  -0.28444109    1.2183308    2.3353915   0.20589712   0.20524158   0.20701474 
 9435000    1.0038254   0.20403246  -0.29019283    1.2154699    2.3215867    0.2047929   0.20379243   0.20351206 
 9436000    1.0075272   0.20332854  -0.28784612    1.2233691    2.3256698   0.20124452   0.20822704   0.20051405 
 9437000   0.99845445    0.2074714  -0.28278515    1.2148216    2.3395819   0.20826926   0.20753194   0.20661298 
 9438000    1.0023916   0.20699869  -0.28219623     1.221316    2.3435136   0.21308179   0.20378699   0.20412729 
 9439000    1.0018923   0.20430389  -0.28726164    1.2155016    2.3230899   0.20750545   0.20197908   0.20342714 
 9440000    1.0058501   0.20498948  -0.28702531    1.2216744    2.3329794   0.20615822    0.2029907   0.20581952 
 9441000    1.0031874   0.20734735  -0.28399649    1.2207094    2.3447971   0.20872751   0.20621558   0.20709896 
 9442000   0.99414122   0.20500952  -0.28383912    1.2072982    2.3187119   0.20435478   0.20361831   0.20705548 
 9443000   0.99651539   0.20457485  -0.28908875    1.2056096    2.3146668   0.20839136   0.20248873   0.20284448 
 9444000   0.99364764   0.20006936  -0.28930293     1.201094    2.2857258   0.20255121   0.19768299   0.19997389 
 9445000   0.99306908   0.20520021  -0.28515605    1.2043731    2.3168206   0.20206705   0.20335212   0.21018146 
 9446000   0.99915297   0.20455505  -0.28662539    1.2120291     2.320979   0.20445435   0.20526855   0.20394225 
 9447000    1.0055344   0.20682963  -0.28699012     1.221236     2.342517   0.20629265   0.20447323   0.20972301 
 9448000    1.0128751    0.2076283  -0.28638431    1.2328524    2.3584632   0.20419712   0.20708778   0.21159999 
 9449000     1.004489   0.20881833  -0.28582665    1.2208315    2.3528938   0.20626403   0.21022699   0.20996398 
 9450000   0.99872649   0.20453535  -0.28842875    1.2095861    2.3184292   0.20629896   0.20628165   0.20102543 
 9451000    0.9982529   0.20316292  -0.28734365    1.2099608    2.3113636   0.20178583   0.20584767   0.20185527 
 9452000   0.99313422   0.20122923  -0.28766507    1.2019618    2.2928815   0.19897945   0.20434452   0.20036373 
 9453000   0.99776482   0.20449266  -0.28788419    1.2086882    2.3172999   0.20376425    0.2032826   0.20643113 
 9454000     1.005859   0.20746349  -0.28552204    1.2231911    2.3479084   0.20632103   0.20874077   0.20732866 
 9455000    1.0045349    0.2071021  -0.28706842    1.2196586    2.3424167   0.20718207   0.20532883    0.2087954 
 9456000    1.0054296   0.20670821  -0.28448574    1.2235832     2.344206   0.20389193    0.2084333    0.2077994 
 9457000    1.0028511    0.2038512  -0.28621635    1.2179851    2.3231192   0.20228195   0.20519543   0.20407622 
 9458000    1.0046896   0.20474391  -0.28706146    1.2198977    2.3298714   0.20351866   0.20828981   0.20242324 
 9459000    1.0040545   0.20465698   -0.2867731    1.2192334    2.3287359   0.20711112     0.204618   0.20224183 
 9460000    1.0137549   0.20691642  -0.28653753    1.2340188    2.3557703   0.20756874   0.20717951     0.206001 
 9461000   0.99571169   0.20608578  -0.28371053    1.2097823    2.3270308    0.2081586   0.20541307   0.20468568 
 9462000   0.99729005   0.20272231  -0.28966863    1.2061917    2.3052058   0.20557636   0.19926563   0.20332495 
 9463000   0.99376897    0.2043784  -0.28594729    1.2046316    2.3126239   0.21100823   0.20336719   0.19875979 
 9464000   0.99304509   0.20903162  -0.28342183    1.2060713      2.33929   0.20328649   0.20757177   0.21623661 
 9465000   0.99538898   0.20366277  -0.28576752    1.2072413    2.3113539   0.20163678   0.20200131   0.20735021 
 9466000   0.99786824   0.20110151  -0.28872637    1.2080012    2.2982284    0.1977925   0.20446092    0.2010511 
 9467000   0.99650027   0.20398041  -0.28908683    1.2055888    2.3114234   0.20142207   0.20868079   0.20183836 
 9468000     1.010632   0.21070001  -0.28470031     1.231172    2.3734354   0.21574058   0.20691203   0.20944742 
 9469000    1.0040913   0.20611542  -0.28608707    1.2199746    2.3373837    0.2076769    0.2014219   0.20924747 
 9470000      1.00674   0.20463593   -0.2855268    1.2245077    2.3338961   0.19846865    0.2091726   0.20626655 
 9471000   0.99835679   0.20551207  -0.28542091    1.2120394    2.3261776   0.20707988   0.20347717   0.20597916 
 9472000   0.99530487    0.2076143  -0.28491247    1.2079702    2.3335052   0.20870854   0.20784179   0.20629259 
 9473000   0.99873268   0.20305801  -0.28765383    1.2103703    2.3112043   0.20514919   0.20216837   0.20185646 
 9474000    1.0018089    0.2010921    -0.289822    1.2128161    2.3029924   0.20189961   0.20043978    0.2009369 
 9475000    1.0019212   0.20640154  -0.28492899    1.2178777    2.3368379   0.20571174   0.20694831   0.20654458 
 9476000    1.0054106   0.20198669  -0.28963522    1.2184053    2.3134314   0.20351186   0.19804927   0.20439894 
 9477000    1.0043205   0.20613989  -0.28700361    1.2194019    2.3369437   0.20120836   0.20864317   0.20856816 
 9478000   0.99756753   0.20583065  -0.28832411    1.2079524    2.3238176   0.20425589   0.20541315    0.2078229 
 9479000   0.98749141   0.20279406  -0.28575539    1.1954077    2.2948107   0.20600416   0.19938375   0.20299427 
 9480000   0.99344192   0.19994338  -0.29224208    1.1978463    2.2817951   0.19965781   0.19755255   0.20261979 
 9481000    1.0015459   0.20528369  -0.28871303    1.2135308    2.3264308   0.20422584   0.20762562   0.20399961 
 9482000   0.99878444   0.20336354  -0.28903608    1.2090657    2.3115561   0.20408119   0.20475737   0.20125207 
 9483000    1.0028905   0.20620728  -0.28679978    1.2174608    2.3353679   0.20742484   0.20485277   0.20634422 
 9484000    1.0020682   0.20510513  -0.28733341    1.2156938    2.3276258   0.20641376   0.20298646   0.20591517 
 9485000    1.0088159   0.20581783  -0.28496052    1.2281877    2.3439835   0.20372081   0.20655486   0.20717781 
 9486000    1.0031174   0.20394642  -0.28881243    1.2157884    2.3214388   0.20124973     0.207137   0.20345254 
 9487000    1.0011859   0.20712644  -0.28436603    1.2173377    2.3402278   0.20604741   0.20958199   0.20574993 
 9488000     1.004944   0.20686433    -0.287975    1.2193656    2.3408348   0.20772442   0.20582904   0.20703953 
 9489000    1.0103111   0.20931782  -0.28588193    1.2295089    2.3642791   0.20835308    0.2049585   0.21464187 
 9490000   0.99862757   0.20423746  -0.28648076    1.2113857    2.3186138   0.20246967   0.20561004   0.20463267 
 9491000    1.0016421   0.20573225  -0.28536688    1.2170212     2.332353   0.20501538   0.20779139   0.20438999 
 9492000   0.99723917     0.206811  -0.28324148    1.2125425    2.3337225   0.20821107   0.20385869   0.20836324 
 9493000   0.99144788   0.20278542  -0.28735472    1.1997427     2.299099   0.20243833   0.20305052   0.20286741 
 9494000   0.99826663   0.20423994  -0.28726466    1.2100604     2.317302   0.20541488   0.20172177   0.20558318 
 9495000    1.0077866   0.20353484  -0.28930759    1.2222967    2.3257158   0.20537391   0.20120063   0.20402998 
 9496000    1.0071199   0.20763424  -0.28916624    1.2214381    2.3470811   0.20594609   0.20857514   0.20838148 
 9497000    1.0055008   0.20711479  -0.28674449    1.2214313    2.3442583   0.20455922   0.20759808   0.20918706 
 9498000    1.0055082   0.20527407  -0.28585821    1.2223286    2.3351765   0.20541314   0.20637778   0.20403129 
 9499000    1.0084281   0.20970503  -0.28348604    1.2290805    2.3659499   0.20952287   0.20935045   0.21024176 
 9500000    1.0044452   0.20416538   -0.2901705     1.216422    2.3232594   0.20429342    0.2020614   0.20614131 
 9501000    1.0055347   0.20473257  -0.28859091    1.2196357     2.329548   0.20579206    0.2054325   0.20297315 
 9502000    1.0052335   0.20485624  -0.28822122    1.2195536    2.3301363   0.19556201   0.21042415   0.20858255 
 9503000    1.0009238   0.20570326  -0.28326356    1.2180471    2.3332217   0.20807703   0.20551668   0.20351606 
 9504000    0.9985268   0.20864865  -0.28611551    1.2115998    2.3427423   0.20780624   0.20639358   0.21174614 
 9505000    1.0009809   0.20607918  -0.28801877    1.2133775    2.3305902   0.20615873   0.20546025   0.20661856 
 9506000    1.0032821   0.20343521  -0.28903511    1.2158128    2.3186917   0.20049861   0.20753004   0.20227696 
 9507000    1.0020561   0.20543327  -0.28752505    1.2154839    2.3291949   0.20688154   0.20428506   0.20513321 
 9508000    1.0051502   0.20369969  -0.28783906    1.2198108    2.3241235   0.20180828   0.20430229   0.20498849 
 9509000    1.0082837   0.20812078  -0.28336556    1.2289844    2.3572652   0.20983662    0.2022141   0.21231162 
 9510000   0.99884643   0.20615129  -0.28616197    1.2120328    2.3296363   0.20615752   0.20213438   0.21016197 
 9511000   0.99680376   0.20373128  -0.28804051    1.2070904    2.3115744   0.20374168   0.19754537    0.2099068 
 9512000   0.99552305   0.20776111  -0.28556221    1.2076477    2.3339786   0.20998243   0.20967945   0.20362147 
 9513000   0.99499023   0.20459967  -0.28468571     1.207725    2.3169168   0.20473834   0.20929552   0.19976515 
 9514000   0.99899511   0.20288571  -0.28999267    1.2084251     2.308325   0.19978236   0.20207924   0.20679552 
 9515000   0.99867337   0.20441492  -0.28673172    1.2112034    2.3193936   0.20311404   0.20349714   0.20663358 
 9516000    1.0096504   0.20714333  -0.28653367    1.2278662    2.3508479   0.19849083   0.21531481   0.20762436 
 9517000    1.0046197   0.20515297  -0.28746422    1.2193899    2.3315813   0.20661067   0.20445025     0.204398 
 9518000    1.0012081   0.20543509  -0.28692226    1.2148148    2.3285357   0.20809941   0.20396032   0.20424554 
 9519000    1.0035523    0.2075913  -0.28490811    1.2203451    2.3457553    0.2152754   0.20556507   0.20193342 
 9520000    1.0008426   0.20288863  -0.28796495    1.2132239    2.3131397   0.20453392   0.20514755   0.19898441 
 9521000   0.99669919     0.205937  -0.28751488    1.2074592     2.323901   0.20843347   0.20607247   0.20330505 
 9522000   0.99592689   0.20590888  -0.28522993    1.2085857    2.3248751   0.20445841    0.2054732   0.20779501 
 9523000   0.99400267   0.20087816  -0.28928658    1.2016429    2.2906593    0.2010723   0.19828246   0.20327971 
 9524000   0.99490485    0.2040815  -0.28484597    1.2074367    2.3138193   0.20449157   0.20227878   0.20547415 
 9525000    1.0011291   0.20437572  -0.28717307    1.2144455    2.3224231   0.20227504   0.20432647   0.20652564 
 9526000    1.0036107   0.20745012   -0.2848547    1.2204861     2.345131   0.20856512   0.20772936   0.20605588 
 9527000    1.0057257   0.20652149  -0.28757243    1.2209406    2.3405512   0.20477876   0.20977398   0.20501174 
 9528000   0.99082436    0.2001691  -0.29026027     1.195902    2.2810744   0.19901127   0.20268932   0.19880671 
 9529000   0.99181871   0.20135484  -0.28899576    1.1986579    2.2902586   0.20111631   0.20235443   0.20059378 
 9530000   0.99960329   0.20247154  -0.29324607    1.2060839    2.3037385   0.20455012   0.20093006   0.20193443 
 9531000   0.99910023   0.20469859  -0.28648395    1.2120915    2.3218195   0.20630243   0.20328154    0.2045118 
 9532000   0.99732143   0.20511329  -0.28731012    1.2085972    2.3205735   0.20876188   0.20469344   0.20188457 
 9533000   0.99711708   0.20619113   -0.2877188     1.207882    2.3257016   0.20591454   0.20511915    0.2075397 
 9534000   0.99658855   0.20336421   -0.2881352    1.2066729    2.3091669   0.20254721   0.20094777   0.20659765 
 9535000   0.99794425   0.20328953  -0.28902522    1.2078163    2.3099054   0.20213938   0.20708052   0.20064867 
 9536000    1.0039899   0.20387625  -0.29012845    1.2157811    2.3210511   0.20544679   0.20307415   0.20310783 
 9537000    1.0054198   0.20684441  -0.28579284    1.2222615    2.3436227   0.21010522   0.20723292   0.20319509 
 9538000    1.0025329    0.2065934  -0.28470986    1.2190143    2.3390146   0.20676678   0.20806777   0.20494566 
 9539000   0.99484936   0.20201361  -0.28833337    1.2038661    2.2990381   0.20258333   0.20023546   0.20322202 
 9540000   0.98598462   0.20162904  -0.28709442    1.1918086    2.2848957   0.20097883   0.20031302   0.20359527 
 9541000    1.0042757   0.20348933  -0.28890143    1.2174369    2.3206092   0.19850264   0.20700178   0.20496355 
 9542000    1.0047511   0.20472482   -0.2878791    1.2191722    2.3290425   0.20427687    0.2050536   0.20484401 
 9543000     1.004955   0.20645811  -0.28865859    1.2186985    2.3379654   0.20959241   0.20706168   0.20272025 
 9544000   0.99732719   0.20713703  -0.28475753    1.2111585     2.334106   0.20707269   0.20834282   0.20599557 
 9545000   0.98946426     0.203219  -0.28758064    1.1965415    2.2982484   0.20378455   0.20486566   0.20100681 
 9546000   0.99674841   0.20680473  -0.28503128    1.2100166    2.3311626   0.20792142   0.20706136   0.20543142 
 9547000    1.0008944   0.20685687  -0.28689406    1.2143725    2.3358013   0.20741748   0.20454237   0.20861076 
 9548000    1.0056512   0.21020267  -0.28482484    1.2235766    2.3631438   0.20962216   0.20790038   0.21308548 
 9549000    1.0082613   0.20420777  -0.28691291    1.2254034    2.3324706   0.20730964   0.20017942   0.20513426 
 9550000    1.0118709   0.20466948  -0.28930892    1.2284215    2.3379918   0.20141484   0.20514579   0.20744782 
 9551000    1.0003308   0.20814534   -0.2849921    1.2154291    2.3438429   0.20992282   0.20556059    0.2089526 
 9552000    1.0024768   0.20256744  -0.29021907    1.2134209    2.3115954   0.20425789   0.20469952   0.19874491 
 9553000    1.0006058   0.20483614  -0.28905471    1.2117789    2.3222527   0.20336877   0.20712907   0.20401059 
 9554000   0.99167846   0.20198162  -0.28759485    1.1998485    2.2948471   0.20459528   0.20097738   0.20037219 
 9555000   0.99725593   0.20371181  -0.28863987    1.2071692    2.3115477    0.2010563   0.20456667   0.20551246 
 9556000   0.99517623   0.20297635  -0.28746816    1.2052215    2.3056129   0.20455078   0.20363068   0.20074758 
 9557000   0.99812609   0.20134398  -0.28871514    1.2083991    2.2999409   0.20137777   0.20563276   0.19702141 
 9558000    0.9937128   0.20159312  -0.28819114    1.2023035     2.295196   0.20301509   0.19962886    0.2021354 
 9559000   0.99602893   0.20624351  -0.28534437    1.2086243    2.3267279   0.20699007    0.2078034   0.20393707 
 9560000   0.99932753      0.20452  -0.28868353    1.2102328    2.3189927   0.20664481   0.20208694   0.20482825 
 9561000    0.9990146   0.20251006  -0.28787263    1.2105743    2.3084378   0.20093264   0.20074284   0.20585469 
 9562000    1.0054199   0.20893139  -0.28333229    1.2247222    2.3573974   0.21150706   0.20770113   0.20758597 
 9563000    1.0086445   0.20588029  -0.28667091    1.2262203    2.3423546   0.20379333   0.20377277   0.21007477 
 9564000    0.9997967   0.20092322  -0.29155839    1.2080617    2.2973224    0.2045901   0.19556907   0.20261049 
 9565000   0.99497546   0.20516313  -0.28554039    1.2068482    2.3190946    0.2022917   0.20548226   0.20771542 
 9566000    0.9975342    0.2042696  -0.28643801    1.2097885    2.3171909   0.20424646   0.20390724    0.2046551 
 9567000   0.99587436   0.20589954  -0.28532486     1.208412    2.3246508    0.2058095   0.20734088   0.20454825 
 9568000    1.0077181   0.20691822  -0.28847751    1.2230241    2.3447854   0.20420588   0.20934563   0.20720315 
 9569000    1.0050309   0.20548137  -0.28701349    1.2204575    2.3344292   0.20556027    0.2071558   0.20372804 
 9570000    1.0069261   0.20080615  -0.29258317    1.2177305    2.3063566   0.20137998   0.19894494   0.20209354 
 9571000    1.0018667   0.20228905  -0.28964243    1.2130825    2.3097478   0.20302112   0.20416996   0.19967608 
 9572000    0.9899766   0.20421227  -0.28635563     1.198535    2.3056266   0.21048776   0.19712207   0.20502697 
 9573000   0.99603322   0.20406958  -0.28535125    1.2086239    2.3149419   0.20634341   0.20477363   0.20109172 
 9574000    1.0012611   0.20574127   -0.2890786     1.212738    2.3281187   0.20339947   0.21094584   0.20287851 
 9575000    1.0008685    0.2070914  -0.28334724    1.2178805    2.3405806   0.20976802   0.20378028    0.2077259 
 9576000   0.99660816   0.21018454  -0.28136797    1.2134695    2.3529384   0.21133581   0.20686206   0.21235574 
 9577000   0.99834811   0.20471017  -0.28748744    1.2099599    2.3197507   0.20508383   0.20344573   0.20560095 
 9578000   0.99227628   0.20534997  -0.28691473    1.2014253    2.3146847   0.20626748   0.20413659   0.20564585 
 9579000      0.98355    0.1997355    -0.286201    1.1890502     2.271872   0.19929051   0.20088484   0.19903115 
 9580000   0.99628789   0.20403128  -0.28924262    1.2051145    2.3112249   0.20485517   0.20376808    0.2034706 
 9581000    1.0011389   0.20474149  -0.28711822    1.2145151    2.3244757   0.20448683   0.20642094   0.20331669 
 9582000    1.0052728   0.20681662  -0.28737341    1.2204604    2.3416709   0.20893364   0.20570661    0.2058096 
 9583000    1.0092408   0.20576662  -0.28679729    1.2269883    2.3425065    0.2027177   0.20982739   0.20475478 
 9584000    1.0009446   0.20225407  -0.28684574    1.2144961    2.3109717   0.20047555    0.1988108   0.20747587 
 9585000    1.0050634   0.20463053  -0.28728033    1.2202394    2.3295985   0.20644772   0.20442248    0.2030214 
 9586000    1.0063045   0.20413509  -0.28754415    1.2218372    2.3285103    0.2028737   0.20232054   0.20721103 
 9587000    1.0009275     0.205587  -0.28541931    1.2158969    2.3304413   0.20839543    0.2041031   0.20426247 
 9588000   0.99914484   0.20298261  -0.28785751    1.2107848    2.3112101   0.20546135   0.20587578   0.19761069 
 9589000   0.99288183   0.20444146   -0.2865422    1.2027061    2.3110402    0.2047179   0.20415215   0.20445432 
 9590000   0.99949213   0.20601985   -0.2882116    1.2109516    2.3278426   0.20380124   0.20633623   0.20792209 
 9591000   0.99414002   0.20536116  -0.28524398    1.2058915    2.3192115   0.20849583   0.20004985   0.20753781 
 9592000   0.99241174   0.20085162  -0.28762237    1.2009208    2.2897934    0.2031283   0.20199826    0.1974283 
 9593000   0.99328722   0.20016503  -0.28770327    1.2021531    2.2873035   0.20020103   0.20051025   0.19978383 
 9594000    1.0018599   0.20059139  -0.28957888    1.2131358    2.3005976   0.20156987   0.20262043   0.19758388 
 9595000   0.99908312   0.20442258  -0.28540886    1.2131409    2.3213726   0.20291572   0.20461027   0.20574175 
 9596000    1.0012985   0.20335255  -0.28800307    1.2138696    2.3163004   0.20069841   0.20399055    0.2053687 
 9597000    1.0031342   0.20634444  -0.28545127    1.2191748    2.3378255   0.20590287   0.20756625    0.2055642 
 9598000    1.0061218   0.20484901  -0.28757461    1.2215326    2.3320762   0.20333799   0.20631825    0.2048908 
 9599000    1.0049846   0.20809506  -0.28272204    1.2246795    2.3528208   0.20566789     0.206424   0.21219329 
 9600000    1.0036263   0.20709271  -0.28727329    1.2180908    2.3407981   0.20113322   0.20959046   0.21055446 
 9601000    1.0006745   0.20681562  -0.28636793    1.2145687    2.3357738   0.20833249   0.20516581   0.20694856 
 9602000   0.99389485   0.20668575  -0.28208862    1.2086791    2.3291801   0.20723137   0.20246148   0.21036441 
 9603000   0.99157804   0.20634519  -0.28483998    1.2024527    2.3211074   0.20291358   0.20985207   0.20626991 
 9604000   0.99136592   0.20130194  -0.29049668    1.1964779    2.2877917   0.20224775    0.2024734   0.19918466 
 9605000   0.98887887   0.20001747  -0.28981567    1.1934285    2.2777789   0.19643245   0.19942545   0.20419451 
 9606000   0.99856481   0.20536636  -0.28559122    1.2121811    2.3255294   0.20730417    0.2081644   0.20063052 
 9607000   0.99708151   0.20536067  -0.28634086    1.2092066     2.322524     0.208038   0.20439936   0.20364464 
 9608000   0.99957025   0.20466116  -0.28690446    1.2123759    2.3219011   0.20259599   0.20788459   0.20350289 
 9609000    1.0049174   0.20599994  -0.28841089    1.2188898    2.3356729   0.20745059   0.20624683   0.20430239 
 9610000    1.0089209   0.20875231  -0.28588308    1.2274226     2.359127    0.2095315   0.20729793    0.2094275 
 9611000     1.002136   0.20374406  -0.28728005    1.2158488     2.320402    0.2050664   0.20708269   0.19908308 
 9612000   0.99797343   0.20395993  -0.28826163    1.2086237    2.3143472   0.20421475   0.20308554   0.20457949 
 9613000   0.99217274   0.20186819  -0.28922584    1.1989589    2.2933425   0.20127958   0.20382719    0.2004978 
 9614000   0.99122594   0.20460996  -0.28474113    1.2020234     2.311271    0.2067688   0.20053407   0.20652701 
 9615000    1.0000794   0.20556434  -0.28713483    1.2129092    2.3273308   0.20803357   0.20423286   0.20442659 
 9616000   0.99907158    0.2056926  -0.28763665    1.2108958    2.3260126   0.20539018     0.207915   0.20377261 
 9617000   0.99342541   0.19867207  -0.28930376    1.2007599    2.2778165   0.19977347   0.19652974   0.19971301 
 9618000   0.99853602   0.20425681  -0.28793696    1.2097922    2.3171252   0.20575498   0.19918056   0.20783488 
 9619000   0.99681383   0.20243601  -0.28675792    1.2083881      2.30585   0.20135379   0.20293406   0.20302018 
 9620000    1.0013518   0.20498458  -0.28590927    1.2160434    2.3273219    0.2059335   0.20589871   0.20312154 
 9621000    1.0098699   0.21069373  -0.28483724    1.2298918    2.3721212   0.21187267   0.20984584   0.21036267 
 9622000     1.007168   0.20680915   -0.2861718    1.2245047    2.3456747   0.21050984   0.20262048   0.20729712 
 9623000   0.99717986   0.20708651  -0.28462442    1.2110706    2.3337442   0.20807058   0.20309661   0.21009234 
 9624000   0.99259605    0.2077283  -0.28570908    1.2031106    2.3292635   0.20635816   0.20902007   0.20780667 
 9625000   0.99587606   0.20663007  -0.28492954    1.2088099     2.329009   0.20907983   0.20449171   0.20631866 
 9626000   0.99225197   0.20513507  -0.28579456     1.202509    2.3146033   0.20527774   0.20201678    0.2081107 
 9627000   0.99946541   0.20635075  -0.28640033    1.2127228    2.3314077    0.2084373    0.2046196   0.20599536 
 9628000   0.99890952   0.19921408  -0.28913271    1.2091567    2.2891516   0.20060146   0.19686733   0.20017343 
 9629000    0.9974727   0.20599972  -0.28604149    1.2100927    2.3268746   0.20548777   0.20493911   0.20757227 
 9630000    1.0010776    0.2002044  -0.28897878    1.2125625    2.2979263   0.20054353   0.20252477    0.1975449 
 9631000   0.99929297    0.2054517  -0.28538156    1.2134829    2.3272938   0.20379691    0.2046928    0.2078654 
 9632000   0.99588246    0.2031164  -0.28822676    1.2055222    2.3066728   0.20270407   0.20260738   0.20403776 
 9633000    1.0003316   0.20487304  -0.28710716    1.2133152     2.323989   0.20831514   0.20380797   0.20249602 
 9634000    1.0066854    0.2064469  -0.28874019    1.2212124    2.3404185   0.20813876   0.20453323   0.20666871 
 9635000    1.0040501   0.20474787  -0.28688311    1.2191168     2.329112   0.20352833   0.20808638   0.20262892 
 9636000    1.0098175   0.20290065  -0.29131879    1.2233317    2.3233127    0.2063229   0.20382207   0.19855698 
 9637000    1.0103031   0.20353995  -0.29036519    1.2250136    2.3284604   0.20649804   0.20343787   0.20068395 
 9638000   0.99547759   0.20264471  -0.28724995    1.2058918    2.3044852   0.20053572   0.20831444   0.19908398 
 9639000   0.99695321   0.20513021  -0.28571073    1.2096443    2.3217123   0.20861453   0.20438099   0.20239511 
 9640000    0.9964043   0.20364785  -0.28767664    1.2068551    2.3108868   0.20132268   0.20888628   0.20073459 
 9641000   0.99967465   0.20327708  -0.28815123    1.2112858    2.3133075   0.20427023   0.20621896   0.19934206 
 9642000   0.99357521   0.20426645  -0.28842399    1.2018643    2.3092496    0.2042959   0.20152597   0.20697747 
 9643000   0.99610118   0.20747281  -0.28456498    1.2095121      2.33428   0.20731071    0.2077338   0.20737393 
 9644000   0.99573369    0.2013524  -0.29027338    1.2032525    2.2948399   0.20156283   0.20239373   0.20010063 
 9645000   0.99526145   0.20421995  -0.28617055     1.206647    2.3137802   0.20400354   0.20167911    0.2069772 
 9646000    1.0007742   0.20227768  -0.29015011    1.2109361    2.3075398   0.20340889   0.20766466   0.19575949 
 9647000   0.99867838    0.2100349  -0.28176591    1.2161768    2.3548345   0.21400793   0.21228471   0.20381207 
 9648000    1.0080043   0.20537955  -0.28519714    1.2267338    2.3401535   0.20137289   0.20538078   0.20938498 
 9649000   0.99960068   0.20754531  -0.28447833    1.2148477    2.3400086   0.20827816    0.2091148   0.20524297 
 9650000    1.0035484   0.20542554  -0.28449312    1.2207543    2.3344233   0.19993522   0.20601813   0.21032328 
 9651000    1.0046268   0.20835955  -0.28444842    1.2224165    2.3519916   0.20609028   0.20826156   0.21072681 
 9652000    1.0005707    0.2049358  -0.28631402     1.214467     2.325481   0.20551014   0.20758963   0.20170762 
 9653000    1.0031552   0.20483104  -0.28670694    1.2179506    2.3283967   0.20088369   0.20365772   0.20995172 
 9654000    1.0042181   0.20310735  -0.29019479    1.2160571    2.3171586   0.20664996   0.20014556   0.20252653 
 9655000    1.0071305   0.20689907  -0.28617621     1.224444    2.3461014   0.20480806   0.21056986   0.20531928 
 9656000   0.99719909   0.20574348   -0.2865995    1.2091243    2.3245171   0.20624356     0.203498   0.20748889 
 9657000   0.99473218   0.20637861  -0.28331969     1.208704    2.3275399   0.20559155   0.20418169   0.20936259 
 9658000   0.99998089   0.20228729  -0.28971266    1.2101837    2.3068394   0.19988563   0.20449694    0.2024793 
 9659000   0.98857167   0.20111344  -0.28421661    1.1985667    2.2888587   0.20358649    0.1977539   0.20199994 
 9660000   0.99585964   0.20224586    -0.289272    1.2044428    2.3008739   0.20009476    0.2064208   0.20022202 
 9661000   0.99631668   0.20343859  -0.28934498    1.2050553    2.3079526    0.2044513   0.20121548   0.20464901 
 9662000   0.99695057   0.19991506  -0.29039045    1.2049606    2.2887559    0.1999535   0.19976375   0.20002793 
 9663000   0.99685095   0.20672704  -0.28521972    1.2099819    2.3307068   0.20587027   0.21062213   0.20368872 
 9664000   0.99318171   0.20651988  -0.28472333    1.2049748    2.3245766   0.20973461   0.20937708   0.20044796 
 9665000   0.99876849   0.20403814  -0.28978223    1.2082956    2.3144432   0.20776565   0.20183335    0.2025154 
 9666000   0.99536399   0.20355664  -0.28726782    1.2057035    2.3092408   0.19970497   0.20571012   0.20525485 
 9667000   0.99963091   0.20203891  -0.29076245    1.2086089    2.3039182   0.20247887   0.20102824   0.20260963 
 9668000   0.99318294   0.20307206  -0.28669342    1.2030065    2.3039167   0.19979917   0.20814739    0.2012696 
 9669000    1.0001973   0.20244513  -0.28993841    1.2102825    2.3077939   0.20699804   0.20094344   0.19939392 
 9670000   0.99318664   0.20595385   -0.2874774    1.2022281    2.3187612   0.20643341   0.20539596   0.20603217 
 9671000   0.99812513   0.20272873   -0.2887669    1.2083459    2.3073948   0.20625579   0.20039286   0.20153754 
 9672000   0.99693618   0.20462159  -0.28662755     1.208702    2.3180126   0.20123259   0.20696955   0.20566262 
 9673000    1.0043304   0.20697622   -0.2869664    1.2194538    2.3415296    0.2047599   0.20990566   0.20626309 
 9674000    1.0030992   0.20664675  -0.28814415    1.2164294     2.336719   0.20513933   0.21034345   0.20445748 
 9675000   0.99494693   0.20319357  -0.28773695    1.2046088    2.3061778   0.19678353   0.20360787   0.20918931 
 9676000   0.99433139   0.20346818  -0.28847076    1.2029517    2.3060094   0.20305365   0.20136107   0.20598983 
 9677000   0.99144605   0.20241895  -0.29089589    1.1961988    2.2935683   0.20226508   0.19998211   0.20500967 
 9678000    0.9982792   0.20387318  -0.28940214    1.2079418    2.3131951   0.20366996   0.19959828   0.20835131 
 9679000   0.99752884   0.20667666  -0.28620134    1.2100171    2.3304688   0.20368594    0.2074082   0.20893584 
 9680000   0.99955919   0.20527661  -0.28762329    1.2116405    2.3245022   0.20648726   0.20466738   0.20467519 
 9681000    1.0116954   0.20382586  -0.28808762    1.2293797    2.3343765   0.20158186   0.20342825   0.20646748 
 9682000     1.003415   0.20434885  -0.28949635    1.2155508    2.3233829   0.20370403   0.20195836   0.20738418 
 9683000     1.001232   0.20572877  -0.28836972    1.2134031    2.3287161   0.20572285   0.20776989   0.20369358 
 9684000   0.99709289   0.20354476    -0.289984    1.2055806    2.3090534   0.19997231   0.20270924   0.20795273 
 9685000   0.99654214   0.20598035  -0.28641469    1.2083238    2.3250006   0.20501404   0.20492037   0.20800665 
 9686000   0.99083046   0.20272216  -0.28612558    1.2000458    2.2990591   0.20580108   0.20428437   0.19808104 
 9687000   0.99921968   0.20558378   -0.2866585    1.2120961     2.326623   0.20305359   0.20843209   0.20526566 
 9688000   0.99570515   0.20411487    -0.287565     1.205918    2.3124816   0.20683143   0.20463337   0.20087982 
 9689000   0.99544814    0.2050684  -0.28760115    1.2054964    2.3172293    0.2113654   0.20025933   0.20358047 
 9690000   0.99585363   0.20479989  -0.28665666    1.2070491    2.3173264   0.20666491   0.20280796   0.20492681 
 9691000   0.99938772   0.20415847  -0.28577533    1.2132313    2.3200312   0.20133477   0.20688756   0.20425309 
 9692000    1.0013161   0.20408919  -0.28750085    1.2143982    2.3208226   0.20175377   0.20403818   0.20647562 
 9693000    1.0027147   0.20744136   -0.2854683    1.2185285    2.3431259   0.20775696   0.20720799   0.20735911 
 9694000    1.0091129   0.20577585  -0.28650674     1.227087    2.3426552   0.20899816   0.20113901   0.20719038 
[...]
 9837000    1.0044385   0.20219606  -0.28870983    1.2178727    2.3140338   0.20101316   0.20359509   0.20197991 
 9838000    1.0050746   0.20490269  -0.28630505    1.2212314     2.332066   0.20774364   0.20461196   0.20235247 
 9839000    1.0064257   0.20534567  -0.28772902     1.221834    2.3350701   0.20881268   0.20403854   0.20318579 
 9840000    1.0045397   0.20633754  -0.28566291    1.2210713    2.3396846   0.20096023   0.20907358   0.20897882 
 9841000   0.99794865   0.20345327  -0.28783252    1.2090156    2.3119924   0.20588049   0.19979933   0.20467999 
 9842000    1.0056948   0.20493878  -0.28722548    1.2212413    2.3322715   0.20698538   0.20477784   0.20305312 
 9843000    1.0000505   0.20500625  -0.28704299    1.2129577    2.3243537   0.20144628   0.20767405   0.20589842 
 9844000   0.99581798   0.19900409  -0.29100721    1.2026451    2.2815017   0.20292159   0.19877185   0.19531884 
 9845000   0.99765369   0.20196756   -0.2885267     1.207879    2.3028014    0.2016088   0.20159448    0.2026994 
 9846000    1.0006616   0.20423209  -0.28979051    1.2111269    2.3183259   0.20547407   0.20051757   0.20670465 
 9847000    1.0102083   0.20800948  -0.28537651    1.2298602    2.3575375   0.20610485    0.2048936   0.21302997 
 9848000    1.0085234   0.20603274  -0.28641038     1.226299    2.3432599   0.21105382   0.20050898   0.20653543 
 9849000    1.0048488   0.20795175  -0.28605753    1.2211403    2.3485047   0.20565132   0.20943194     0.208772 
 9850000    1.0035911   0.20598131  -0.28645389    1.2188576    2.3355396    0.2049007   0.21092441   0.20211881 
 9851000    1.0040666    0.2044141  -0.29009024    1.2159344    2.3241201   0.20953254   0.20147866    0.2022311 
 9852000   0.99859385   0.20938162  -0.28505927    1.2127566    2.3478727   0.21003511   0.20964083    0.2084689 
 9853000   0.99057987   0.20179674  -0.28741589    1.1983796    2.2923759   0.20511755   0.20137893   0.19889374 
 9854000   0.99500689   0.20586187    -0.285509    1.2069267    2.3229613   0.20472678   0.20444565   0.20841318 
 9855000   0.99742113   0.20047453  -0.29040328    1.2056536    2.2924819   0.20110152   0.19858695   0.20173512 
 9856000   0.99675696   0.20369201  -0.28690357    1.2081571    2.3124282   0.20446085   0.20322496   0.20339023 
 9857000   0.99671801   0.20333655  -0.28829356    1.2067087    2.3090528   0.20744324   0.20024081   0.20232561 
 9858000   0.99836675   0.20619473  -0.28660436    1.2108709      2.32871   0.20762837   0.20482391   0.20613193 
 9859000    1.0013524   0.20660872  -0.28400121    1.2179522    2.3380356   0.20098279   0.20485375    0.2139896 
 9860000    1.0021109   0.20544664  -0.28703789    1.2160533    2.3298368   0.20482075   0.20706785   0.20445133 
 9861000    1.0061822   0.21021041  -0.28455237    1.2246455    2.3642547   0.21105361   0.21196672    0.2076109 
 9862000    1.0037887   0.20206389  -0.29184494    1.2137628    2.3092074   0.20121905   0.20165224   0.20332039 
 9863000    1.0011514   0.20778904  -0.28653356    1.2151184    2.3416007   0.20896374   0.20031957   0.21408383 
 9864000   0.98958651   0.19933942  -0.29042035    1.1938852    2.2745597   0.20202159   0.20190126   0.19409542 
 9865000   0.99394063   0.20267829  -0.28698132    1.2038551    2.3026305   0.20015096   0.20066194   0.20722197 
 9866000   0.99832561    0.2041841  -0.28764628    1.2097673    2.3167062    0.2045879   0.20528897   0.20267544 
 9867000    1.0044312   0.20686526  -0.28735248     1.219219    2.3406931   0.20871244    0.2042861   0.20759724 
 9868000    1.0060986   0.20808318   -0.2876065    1.2214659    2.3495428   0.20678418   0.20886445   0.20860092 
 9869000    1.0042909   0.20406527  -0.28765825    1.2187028    2.3249974   0.20529064   0.20497542   0.20192974 
 9870000    1.0042954   0.20761349  -0.28485869    1.2215091    2.3470397   0.20909288   0.21172824   0.20201936 
 9871000    1.0028315   0.20448217  -0.29022003    1.2139521    2.3225069   0.20444934    0.2052106   0.20378657 
 9872000    0.9990869   0.20294194  -0.29029544      1.20826    2.3084648   0.20042309   0.20388976   0.20451298 
 9873000   0.98738017   0.20143264  -0.28827485    1.1927213    2.2847438   0.20026457   0.20323912   0.20079422 
 9874000   0.99160384   0.19925142  -0.29102654    1.1963048    2.2765023   0.19619602   0.19720891   0.20434932 
 9875000   0.99780271   0.20198043  -0.29101745    1.2056118    2.3006039   0.19905445   0.20468267   0.20220416 
 9876000    1.0026679   0.20100527  -0.29069303    1.2132337    2.3029392   0.19947037   0.20189243   0.20165301 
 9877000    1.0033618   0.20817969  -0.28293158    1.2220359     2.350636   0.20504233   0.21348647   0.20601028 
 9878000    1.0020232   0.20550026  -0.28536884    1.2175908     2.331665   0.20281794   0.20658196   0.20710087 
 9879000    1.0036304    0.2082517  -0.28501816    1.2203521    2.3493426   0.20791958   0.21008035   0.20675517 
 9880000    1.0033294   0.20598097  -0.28665856    1.2182603    2.3349405   0.20029913    0.2075281   0.21011566 
 9881000   0.99906684   0.20589925  -0.28793599    1.2105893    2.3268265   0.20921872   0.20384915   0.20462989 
 9882000    1.0004288   0.20538393  -0.28627985    1.2142883    2.3277317   0.20498638   0.20815762   0.20300779 
 9883000   0.99661841   0.20584736  -0.28652553    1.2083273    2.3242832    0.2060789   0.20636011   0.20510306 
 9884000   0.99096364   0.20203126  -0.28975792    1.1966132    2.2918809   0.20201813   0.20474536   0.19933028 
 9885000   0.99520905   0.20401357    -0.286839    1.2058999    2.3119143   0.19760928   0.21070591   0.20372553 
 9886000    0.9989455   0.20698389  -0.28599201    1.2123513    2.3344687   0.20982037   0.20737736   0.20375396 
 9887000    1.0023779   0.20579125  -0.28803855    1.2154531    2.3311047   0.20731447   0.20369349   0.20636578 
 9888000    1.0042355   0.20542567   -0.2859242    1.2203537    2.3340235   0.20663057   0.20397376   0.20567268 
 9889000    1.0096539   0.20422161   -0.2885808    1.2258243    2.3329665   0.20323747   0.20836538   0.20106198 
 9890000    1.0034862   0.20511791  -0.28658693    1.2185671    2.3305684   0.20178786   0.20826396   0.20530191 
 9891000    1.0061798   0.20388752  -0.28757036    1.2216238    2.3269549   0.20789709   0.19781385   0.20595163 
 9892000    1.0020006     0.201656  -0.28868512    1.2142406    2.3074739   0.20087821   0.20162328    0.2024665 
 9893000    1.0006779   0.20533892  -0.28888861    1.2120531    2.3252526   0.20116873   0.20861925   0.20622878 
 9894000    1.0058521   0.20751752  -0.28666689    1.2220358    2.3470461   0.20487121   0.20939051   0.20829084 
 9895000    1.0041762   0.20600448  -0.28719025    1.2189987    2.3358064   0.20169988   0.20740167   0.20891189 
 9896000    1.0022715   0.20603237  -0.28700486    1.2163273    2.3332861   0.20109254   0.20897856   0.20802601 
 9897000    1.0003772   0.20518753  -0.28756807    1.2129228    2.3253015   0.21043594   0.20302724   0.20209941 
 9898000   0.98752961   0.19578389  -0.29213877    1.1890816    2.2504806     0.193438   0.20024507   0.19366859 
 9899000   0.99360252   0.20569254  -0.28805556    1.2022737    2.3173903   0.20565895   0.20497731   0.20644137 
 9900000   0.99633562   0.20443839  -0.28805792    1.2063708    2.3146882   0.20488569   0.20398227    0.2044472 
 9901000    1.0057368   0.20680738  -0.28865732    1.2198724    2.3410328   0.20837882   0.20768643   0.20435689 
 9902000     1.002389   0.20249646    -0.287942    1.2155663     2.313356   0.20428576   0.20385286   0.19935075 
 9903000   0.99589009   0.20084032  -0.28678914    1.2069713    2.2957826   0.20103852   0.19811447   0.20336797 
 9904000    0.9956877   0.20547112  -0.28400367    1.2094532    2.3233694   0.20296051   0.20746882   0.20598403 
 9905000    1.0014679   0.20405906  -0.28755849    1.2145683    2.3208293   0.20343463   0.20254282   0.20619974 
 9906000    1.0001697   0.20498347  -0.28520755    1.2149719    2.3262444   0.20768163   0.19996131   0.20730746 
 9907000   0.99846743   0.20500337  -0.28728541    1.2103409    2.3217212   0.20702216   0.20432935    0.2036586 
 9908000    1.0017165   0.20469209  -0.28756937    1.2149303    2.3246232   0.21033156   0.20248821    0.2012565 
 9909000    1.0123832   0.20626929  -0.28747274    1.2310262    2.3492695   0.20545651   0.21100806   0.20234331 
 9910000   0.99875421   0.20824392  -0.28417833    1.2138781    2.3428264   0.20738866    0.2088753   0.20846781 
 9911000   0.99966098   0.20614644  -0.28589296    1.2135235    2.3311008   0.20464675   0.20807038   0.20572218 
 9912000    1.0001912   0.20428506  -0.28736245    1.2128493    2.3203355   0.20488886   0.19807395   0.20989237 
 9913000   0.99598024   0.20636967   -0.2836612    1.2102345    2.3290219   0.20403234   0.20784389   0.20723278 
 9914000   0.99154969   0.20207903  -0.28779985    1.1994503     2.294977   0.20171295   0.20013409   0.20439006 
 9915000    1.0017671    0.2030911  -0.28682991    1.2157456     2.316759   0.20485725   0.20034152   0.20407453 
 9916000    1.0051279   0.20596956  -0.28849502    1.2191215    2.3357398   0.20914606    0.2064298   0.20233283 
 9917000    1.0040407   0.20891963  -0.28597709    1.2200087    2.3526202   0.20533309   0.21175426   0.20967155 
 9918000    1.0027908   0.20459643  -0.28880201    1.2153089    2.3244832   0.20497698   0.20209393   0.20671837 
 9919000    1.0008673   0.20225871  -0.29184236    1.2093835    2.3058843   0.20336443    0.2019297   0.20148199 
 9920000   0.99872188   0.20434199  -0.28696581    1.2110421    2.3188369   0.20718985   0.20333776   0.20249835 
 9921000   0.99741924   0.20062885  -0.28961658    1.2064375    2.2941023   0.19678836   0.20326667   0.20183152 
 9922000   0.99618429   0.20293342  -0.28887614    1.2053256    2.3054842   0.20461987    0.2015323   0.20264807 
 9923000    1.0007734   0.20220561  -0.29016266    1.2109224    2.3071353    0.2009217   0.20093967   0.20475545 
 9924000   0.99733668   0.20320021  -0.28911761    1.2068126    2.3084175   0.20550241   0.20094706   0.20315116 
 9925000   0.99722103   0.20673742  -0.28322603    1.2125307    2.3333118    0.2062758   0.20347191   0.21046454 
 9926000    1.0074892   0.20593067  -0.28787819    1.2232801    2.3396876    0.2075594   0.20547442    0.2047582 
 9927000     1.009461   0.21069813  -0.28293116    1.2311846    2.3734378    0.2087504   0.21010656   0.21323743 
 9928000    1.0091832   0.20529339  -0.28512725    1.2285718    2.3415245   0.20483031   0.20425143   0.20679843 
 9929000    1.0051367   0.20508247   -0.2874414    1.2201883    2.3319975   0.20398065   0.20175785   0.20950892 
 9930000   0.99778175   0.20604892  -0.28595884    1.2106389    2.3276875    0.2081918   0.20518965   0.20476531 
 9931000    1.0011044   0.20283646  -0.28953201    1.2120495    2.3116824   0.20069982   0.20744471   0.20036487 
 9932000    1.0049732   0.20589917  -0.28615461    1.2212299    2.3374667   0.20567655   0.20536008   0.20666089 
 9933000    1.0059991   0.20788115  -0.28575804    1.2231652    2.3501468   0.21116099   0.20331239   0.20917006 
 9934000    1.0013078   0.20701965  -0.28494586    1.2169407    2.3392519   0.20628961    0.2104548   0.20431454 
 9935000    1.0033735    0.2082809  -0.28399189     1.220993    2.3501418   0.20844284   0.21133053   0.20506932 
 9936000    1.0041691   0.20585423  -0.28626182    1.2199165    2.3359096   0.20287731   0.20758376   0.20710164 
 9937000   0.99563932   0.20089225  -0.29045631     1.202928    2.2920209   0.20203391   0.20033334   0.20030951 
 9938000   0.98982855   0.20132542  -0.28903275    1.1956358     2.287077   0.20133461   0.20293715    0.1997045 
 9939000   0.99914085   0.20548567  -0.28643262    1.2122037    2.3261988   0.20526725   0.21163552   0.19955426 
 9940000    1.0032424   0.19969064  -0.29295359    1.2118347    2.2944133   0.20000326   0.19983133   0.19923734 
 9941000   0.99455237   0.20243361  -0.28793002    1.2038239    2.3012729   0.20547432   0.20056488   0.20126163 
 9942000   0.99594119   0.20169112  -0.28949415    1.2043429    2.2977667   0.20557249    0.1979769   0.20152396 
 9943000   0.99313084   0.20537064  -0.28683861    1.2027832    2.3161546   0.20650705   0.20044943   0.20915545 
 9944000    1.0017755   0.20597635  -0.28747229    1.2151159     2.331771   0.20961786   0.20420054   0.20411065 
 9945000    1.0016968   0.20083281  -0.29138872    1.2110814     2.299852    0.1978555    0.2033965   0.20124644 
 9946000    1.0028647    0.2060461  -0.28624042    1.2179815    2.3350148   0.20638453   0.20267522   0.20907855 
 9947000   0.99949278   0.20336847  -0.28730659    1.2118576    2.3143747   0.21019042    0.2002437   0.19967127 
 9948000    1.0137053   0.20622153    -0.287756    1.2327259    2.3507103   0.20475423   0.20606702   0.20784334 
 9949000     1.011578    0.2087015   -0.2878133    1.2294779    2.3609068   0.20856498   0.20461878   0.21292073 
 9950000    1.0008038   0.20312801  -0.28801452    1.2131161    2.3143297   0.20326836   0.20006693   0.20604875 
 9951000   0.99878379   0.20578402  -0.28623319    1.2118676    2.3274801   0.20577541   0.20434581   0.20723084 
 9952000   0.99795114   0.20107719  -0.28877041    1.2080815    2.2981769   0.20027673   0.19961246    0.2033424 
 9953000   0.98949111   0.20558773  -0.28577999    1.1983825    2.3129308    0.2052399   0.20460507   0.20691821 
 9954000    1.0001781   0.20183478   -0.2878346    1.2123576    2.3065601   0.19934174   0.20496868    0.2011939 
 9955000    1.0012738   0.20628035  -0.28475154     1.217084    2.3353873   0.20942159   0.20328035    0.2061391 
 9956000    1.0054782   0.21094604  -0.28282745    1.2253144    2.3689116   0.21349706   0.21136406   0.20797699 
 9957000   0.99965691   0.20592919  -0.28693518    1.2124752    2.3288747   0.20484733   0.20784564    0.2050946 
 9958000    1.0071849   0.20542143  -0.29027285    1.2204289    2.3340757   0.20341341   0.20687259    0.2059783 
 9959000   0.99805961   0.20427908  -0.28699725    1.2100173    2.3174711   0.20984673   0.20006804   0.20292246 
 9960000   0.99239851   0.20269596  -0.28504541    1.2034779    2.3023492   0.20461184   0.20395775   0.19951829 
 9961000    1.0013306   0.20292437  -0.28770714    1.2142137    2.3143233   0.20163731   0.20587065   0.20126516 
 9962000    1.0030776   0.20752899   -0.2849505    1.2195907    2.3446631   0.20830184     0.205292   0.20899313 
 9963000    1.0069233   0.20257702  -0.29005403    1.2202553    2.3184818   0.20484743   0.20094843   0.20193519 
 9964000     1.013442   0.20396325   -0.2889981    1.2310889    2.3368305   0.20447275   0.20450828   0.20290873 
 9965000    1.0081175    0.2031794  -0.28615326    1.2259474    2.3274395   0.20473141   0.19929964   0.20550713 
 9966000    1.0009497   0.20109992  -0.28893299    1.2124165    2.3026352   0.20183607   0.19822161   0.20324207 
 9967000    1.0028994   0.20413199  -0.28820137    1.2160726    2.3227289   0.20556804   0.20146358   0.20536434 
 9968000   0.99975642   0.20787448  -0.28473014    1.2148295    2.3417749   0.20584846   0.20828827   0.20948669 
 9969000   0.99549014     0.206007  -0.28346001    1.2097005    2.3265218    0.2003874   0.21030418   0.20732941 
 9970000   0.99982532   0.20260631  -0.28814914    1.2115139    2.3098991   0.19885414    0.2057224   0.20324238 
 9971000   0.99181989   0.20443299  -0.28779801    1.1998574    2.3081456   0.20384285   0.20896711     0.200489 
 9972000   0.99635884   0.20422167  -0.28831375    1.2061498    2.3132923   0.20237814   0.20712789   0.20315899 
 9973000    1.0014806   0.19967678  -0.29098341    1.2111624    2.2936659   0.19971823     0.199096    0.2002161 
 9974000    1.0069723   0.20605907  -0.28416178    1.2262212    2.3433248   0.20824256   0.20027342   0.20966122 
 9975000    1.0114435   0.21178743  -0.28080514    1.2362843    2.3844429   0.21086728   0.21323908   0.21125593 
 9976000    1.0023859   0.20923838  -0.28450861    1.2189951    2.3533346   0.21110766   0.21228251   0.20432496 
 9977000    1.0021587   0.20967443  -0.28366799     1.219495    2.3561984   0.21049283   0.21040369   0.20812677 
 9978000   0.99944828   0.20612054  -0.28333981    1.2157576    2.3331945   0.20688294   0.20433043   0.20714824 
 9979000    1.0077713   0.20736903  -0.28625248    1.2253289    2.3495342   0.20735279   0.20833985   0.20641444 
 9980000    1.0027883    0.2002058  -0.29113401    1.2129733    2.2983447   0.19868718   0.20259752    0.1993327 
 9981000   0.99658183   0.20822218  -0.28505013    1.2097479    2.3385783   0.21182406   0.20818356   0.20465892 
 9982000   0.99570276    0.2020676  -0.28847234    1.2050071    2.3004719   0.20278762   0.20194894   0.20146623 
 9983000   0.99673355   0.20030672  -0.28867165    1.2063539    2.2922724   0.20353953   0.19355944   0.20382119 
 9984000    1.0085074   0.20754436  -0.28529484    1.2273906    2.3525464   0.20849405   0.20383837   0.21030066 
 9985000    1.0129214   0.20925714  -0.28471093    1.2345952    2.3690364   0.20552606   0.21432807   0.20791731 
 9986000    1.0027579   0.20373485  -0.28730516    1.2167565    2.3212599   0.20479653   0.20439208   0.20201593 
 9987000   0.99943561   0.20232147  -0.28987252    1.2092059     2.306047   0.20149737   0.20001655    0.2054505 
 9988000   0.99741482   0.20623978  -0.28652169    1.2095257     2.327609   0.20709489   0.20940049   0.20222396 
 9989000   0.99181066   0.20243372  -0.28733906    1.2003025    2.2977522   0.19933067    0.2055195   0.20245101 
 9990000   0.99882647   0.20546279  -0.28708973    1.2110751    2.3249461   0.20886304   0.20755757   0.19996777 
 9991000   0.99532527    0.2017061  -0.29020416    1.2027091     2.296214   0.20011906    0.2021931   0.20280614 
 9992000   0.99520732   0.20434947  -0.28713522    1.2056011    2.3134365   0.20546508   0.20270787   0.20487545 
 9993000    1.0036481   0.20553985  -0.28580035    1.2195965    2.3338853   0.20594336   0.20509165   0.20558453 
 9994000    1.0105626   0.20534367   -0.2878726    1.2278955    2.3411207   0.20584931   0.19755737   0.21262433 
 9995000    1.0003142   0.20594635  -0.28498101    1.2154153    2.3319079   0.20552989   0.20635058   0.20595859 
 9996000   0.99544846   0.20495481  -0.28501994    1.2080781    2.3191952   0.20873268   0.20731635    0.1988154 
 9997000   0.99357649   0.20121624  -0.28854696    1.2017433    2.2925925   0.20281413   0.20085788   0.19997671 
 9998000   0.99868107    0.2077537  -0.28563068     1.212316    2.3386067   0.20635482   0.20965088   0.20725541 
 9999000    1.0097641   0.20310739  -0.28920309    1.2253673     2.326469   0.20567852   0.19626699   0.20737665 
10000000    1.0056051   0.20589102  -0.28630198    1.2220302    2.3382227   0.20877732   0.20149917   0.20739657 
Loop time of 3703.58 on 1 procs for 1000000 steps with 20000 atoms

Performance: 116643.874 tau/day, 270.009 timesteps/s
99.9% CPU use with 1 MPI tasks x 1 OpenMP threads

MPI task timing breakdown:
Section |  min time  |  avg time  |  max time  |%varavg| %total
---------------------------------------------------------------
Pair    | 2215       | 2215       | 2215       |   0.0 | 59.81
Neigh   | 1102.6     | 1102.6     | 1102.6     |   0.0 | 29.77
Comm    | 79.007     | 79.007     | 79.007     |   0.0 |  2.13
Output  | 25.419     | 25.419     | 25.419     |   0.0 |  0.69
Modify  | 244.22     | 244.22     | 244.22     |   0.0 |  6.59
Other   |            | 37.36      |            |       |  1.01

Nlocal:    20000 ave 20000 max 20000 min
Histogram: 1 0 0 0 0 0 0 0 0 0
Nghost:    8971 ave 8971 max 8971 min
Histogram: 1 0 0 0 0 0 0 0 0 0
Neighs:    166833 ave 166833 max 166833 min
Histogram: 1 0 0 0 0 0 0 0 0 0

Total # of neighbors = 166833
Ave neighs/atom = 8.34165
Neighbor list builds = 100000
Dangerous builds = 99900

write_restart 	out.restart.sys.final.${temp}
write_restart 	out.restart.sys.final.1
unfix intg
unfix ploadx
undump  trj
uncompute denprof
unfix   denprof

next    t
jump    SELF temperatureloop
Total wall time: 13:21:17
